
    -----------------------------------------------------------------------
          Psi4: An Open-Source Ab Initio Electronic Structure Package
                               Psi4 1.9.1 release

                         Git: Rev {} zzzzzzz 


    D. G. A. Smith, L. A. Burns, A. C. Simmonett, R. M. Parrish,
    M. C. Schieber, R. Galvelis, P. Kraus, H. Kruse, R. Di Remigio,
    A. Alenaizan, A. M. James, S. Lehtola, J. P. Misiewicz, M. Scheurer,
    R. A. Shaw, J. B. Schriber, Y. Xie, Z. L. Glick, D. A. Sirianni,
    J. S. O'Brien, J. M. Waldrop, A. Kumar, E. G. Hohenstein,
    B. P. Pritchard, B. R. Brooks, H. F. Schaefer III, A. Yu. Sokolov,
    K. Patkowski, A. E. DePrince III, U. Bozkaya, R. A. King,
    F. A. Evangelista, J. M. Turney, T. D. Crawford, C. D. Sherrill,
    J. Chem. Phys. 152(18) 184108 (2020). https://doi.org/10.1063/5.0006002

                            Additional Code Authors
    E. T. Seidl, C. L. Janssen, E. F. Valeev, M. L. Leininger,
    J. F. Gonthier, R. M. Richard, H. R. McAlexander, M. Saitow, X. Wang,
    P. Verma, M. H. Lechner, A. Jiang, S. Behnle, A. G. Heide,
    M. F. Herbst, and D. L. Poole

             Previous Authors, Complete List of Code Contributors,
                       and Citations for Specific Modules
    https://github.com/psi4/psi4/blob/master/codemeta.json
    https://github.com/psi4/psi4/graphs/contributors
    http://psicode.org/psi4manual/master/introduction.html#citing-psifour

    -----------------------------------------------------------------------


    Psi4 started on: Monday, 25 March 2024 04:36PM

    Process ID: 29649
    Host:       clydes-mbp.haverford.edu
    PSIDATADIR: /Users/clydedaly/anaconda3/envs/psi4/share/psi4
    Memory:     500.0 MiB
    Threads:    1
    
Scratch directory: /tmp/
   => Libint2 <=

    Primary   basis highest AM E, G, H:  6, 6, 3
    Auxiliary basis highest AM E, G, H:  7, 7, 4
    Onebody   basis highest AM E, G, H:  -, -, -
    Solid Harmonics ordering:            Gaussian

*** tstart() called on clydes-mbp.haverford.edu
*** at Mon Mar 25 16:36:52 2024

   => Loading Basis Set <=

    Name: AUG-CC-PVTZ
    Role: ORBITAL
    Keyword: BASIS
    atoms 1-2 entry H          line    40 file /Users/clydedaly/anaconda3/envs/psi4/share/psi4/basis/aug-cc-pvtz.gbs 


         ---------------------------------------------------------
                                   SCF
               by Justin Turney, Rob Parrish, Andy Simmonett
                          and Daniel G. A. Smith
                              RHF Reference
                        1 Threads,    500 MiB Core
         ---------------------------------------------------------

  ==> Geometry <==

    Molecular point group: d2h
    Full point group: D_inf_h

    Geometry (in Angstrom), charge = 0, multiplicity = 1:

       Center              X                  Y                   Z               Mass       
    ------------   -----------------  -----------------  -----------------  -----------------
         H            0.000000000000     0.000000000000    -0.150000000000     1.007825032230
         H            0.000000000000     0.000000000000     0.150000000000     1.007825032230

  Running in d2h symmetry.

  Rotational constants: A = ************  B =    371.70538  C =    371.70538 [cm^-1]
  Rotational constants: A = ************  B = 11143446.81060  C = 11143446.81060 [MHz]
  Nuclear repulsion =    1.763924035566667

  Charge       = 0
  Multiplicity = 1
  Electrons    = 2
  Nalpha       = 1
  Nbeta        = 1

  ==> Algorithm <==

  SCF Algorithm Type is PK.
  DIIS enabled.
  MOM disabled.
  Fractional occupation disabled.
  Guess Type is SAD.
  Energy threshold   = 1.00e-08
  Density threshold  = 1.00e-08
  Integral threshold = 1.00e-12

  ==> Primary Basis <==

  Basis Set: AUG-CC-PVTZ
    Blend: AUG-CC-PVTZ
    Number of shells: 18
    Number of basis functions: 46
    Number of Cartesian functions: 50
    Spherical Harmonics?: true
    Max angular momentum: 2

  ==> Integral Setup <==

  Using in-core PK algorithm.
   Calculation information:
      Number of atoms:                   2
      Number of AO shells:              18
      Number of primitives:             22
      Number of atomic orbitals:        50
      Number of basis functions:        46

      Integral cutoff                 1.00e-12
      Number of threads:                 1

  Performing in-core PK
  Using 1169642 doubles for integral storage.
  We computed 14706 shell quartets total.
  Whereas there are 14706 unique shell quartets.

  ==> DiskJK: Disk-Based J/K Matrices <==

    J tasked:                  Yes
    K tasked:                  Yes
    wK tasked:                  No
    Memory [MiB]:              375
    Schwarz Cutoff:          1E-12

    OpenMP threads:              1

  Minimum eigenvalue in the overlap matrix is 1.0693181896E-05.
  Reciprocal condition number of the overlap matrix is 2.3152217764E-06.
    Using symmetric orthogonalization.

  ==> Pre-Iterations <==

  SCF Guess: Superposition of Atomic Densities via on-the-fly atomic UHF (no occupation information).

   -------------------------
    Irrep   Nso     Nmo    
   -------------------------
     Ag        11      11 
     B1g        2       2 
     B2g        5       5 
     B3g        5       5 
     Au         2       2 
     B1u       11      11 
     B2u        5       5 
     B3u        5       5 
   -------------------------
    Total      46      46
   -------------------------

  ==> Iterations <==

                        Total Energy        Delta E     RMS |[F,P]|

   @RHF iter SAD:    -0.19671098800225   -1.96711e-01   0.00000e+00 
   @RHF iter   1:    -0.65263965201366   -4.55929e-01   3.26954e-03 ADIIS/DIIS
   @RHF iter   2:    -0.65659658580298   -3.95693e-03   7.41014e-04 ADIIS/DIIS
   @RHF iter   3:    -0.65680332979995   -2.06744e-04   2.20584e-05 DIIS
   @RHF iter   4:    -0.65680346428158   -1.34482e-07   1.36846e-06 DIIS
   @RHF iter   5:    -0.65680346473605   -4.54464e-10   7.78865e-08 DIIS
   @RHF iter   6:    -0.65680346473820   -2.15494e-12   6.33741e-09 DIIS
  Energy and wave function converged.


  ==> Post-Iterations <==

    Orbital Energies [Eh]
    ---------------------

    Doubly Occupied:                                                      

       1Ag    -0.776711  

    Virtual:                                                              

       2Ag     0.048276     1B1u    0.055630     2B1u    0.218662  
       1B3u    0.221904     1B2u    0.221904     3Ag     0.284096  
       1B2g    0.300013     1B3g    0.300013     4Ag     0.384011  
       3B1u    0.473416     1B1g    0.820063     5Ag     0.820063  
       4B1u    0.836652     2B2g    0.902879     2B3g    0.902879  
       6Ag     0.970741     2B2u    0.989160     2B3u    0.989160  
       1Au     1.083184     5B1u    1.083184     3B3u    1.088088  
       3B2u    1.088088     6B1u    1.234254     7Ag     1.477717  
       7B1u    1.978329     3B2g    2.049098     3B3g    2.049098  
       8Ag     3.061264     2B1g    3.768907     9Ag     3.768907  
       4B2u    3.790835     4B3u    3.790835     8B1u    4.337932  
       4B3g    4.429492     4B2g    4.429492    10Ag     4.505061  
       2Au     4.809054     9B1u    4.809054     5B2u    4.834944  
       5B3u    4.834944    10B1u    5.065192     5B3g    8.538144  
       5B2g    8.538144    11Ag     9.774349    11B1u   15.491513  

    Final Occupation by Irrep:
             Ag   B1g   B2g   B3g    Au   B1u   B2u   B3u 
    DOCC [     1,    0,    0,    0,    0,    0,    0,    0 ]
    NA   [     1,    0,    0,    0,    0,    0,    0,    0 ]
    NB   [     1,    0,    0,    0,    0,    0,    0,    0 ]

  @RHF Final Energy:    -0.65680346473820

   => Energetics <=

    Nuclear Repulsion Energy =              1.7639240355666670
    One-Electron Energy =                  -3.2880324132813081
    Two-Electron Energy =                   0.8673049129764392
    Total Energy =                         -0.6568034647382019

Computation Completed


Properties will be evaluated at   0.000000,   0.000000,   0.000000 [a0]

Properties computed using the SCF density matrix


 Multipole Moments:

 ------------------------------------------------------------------------------------
     Multipole            Electronic (a.u.)      Nuclear  (a.u.)        Total (a.u.)
 ------------------------------------------------------------------------------------

 L = 1.  Multiply by 2.5417464519 to convert [e a0] to [Debye]
 Dipole X            :          0.0000000            0.0000000            0.0000000
 Dipole Y            :          0.0000000            0.0000000            0.0000000
 Dipole Z            :          0.0000000            0.0000000            0.0000000
 Magnitude           :                                                    0.0000000

 ------------------------------------------------------------------------------------

*** tstop() called on clydes-mbp.haverford.edu at Mon Mar 25 16:36:53 2024
Module time:
	user time   =       0.42 seconds =       0.01 minutes
	system time =       0.12 seconds =       0.00 minutes
	total time  =          1 seconds =       0.02 minutes
Total time:
	user time   =       0.42 seconds =       0.01 minutes
	system time =       0.12 seconds =       0.00 minutes
	total time  =          1 seconds =       0.02 minutes
 MINTS: Wrapper to libmints.
   by Justin Turney

   Calculation information:
      Number of threads:                 1
      Number of atoms:                   2
      Number of AO shells:              18
      Number of SO shells:               9
      Number of primitives:             22
      Number of atomic orbitals:        50
      Number of basis functions:        46

      Number of irreps:                  8
      Integral cutoff                 1.00e-12
      Number of functions per irrep: [  11    2    5    5    2   11    5    5 ]

 OEINTS: Overlap, kinetic, potential, dipole, and quadrupole integrals
         stored in file 35.

      Computing two-electron integrals...done
      Computed 69839 non-zero two-electron integrals.
        Stored in file 33.


*** tstart() called on clydes-mbp.haverford.edu
*** at Mon Mar 25 16:36:53 2024


	Wfn Parameters:
	--------------------
	Wavefunction         = CCSD_T
	Number of irreps     = 8
	Number of MOs        = 46
	Number of active MOs = 46
	AO-Basis             = NONE
	Semicanonical        = false
	Reference            = RHF
	Print Level          = 1

	IRREP	# MOs	# FZDC	# DOCC	# SOCC	# VIRT	# FZVR
	-----	-----	------	------	------	------	------
	 Ag	   11	    0	    1	    0	    10	    0
	 B1g	   2	    0	    0	    0	    2	    0
	 B2g	   5	    0	    0	    0	    5	    0
	 B3g	   5	    0	    0	    0	    5	    0
	 Au	   2	    0	    0	    0	    2	    0
	 B1u	   11	    0	    0	    0	    11	    0
	 B2u	   5	    0	    0	    0	    5	    0
	 B3u	   5	    0	    0	    0	    5	    0
	Transforming integrals...
	IWL integrals will be deleted.
	(OO|OO)...
	Presorting SO-basis two-electron integrals.
	Sorting File: SO Ints (nn|nn) nbuckets = 1
	Constructing frozen core operators
	Starting first half-transformation.
	Sorting half-transformed integrals.
	First half integral transformation complete.
	Starting second half-transformation.
	Two-electron integral transformation complete.
	(OO|OV)...
	Starting second half-transformation.
	Two-electron integral transformation complete.
	(OO|VV)...
	Starting second half-transformation.
	Two-electron integral transformation complete.
	(OV|OO)...
	Starting first half-transformation.
	Sorting half-transformed integrals.
	First half integral transformation complete.
	Starting second half-transformation.
	Two-electron integral transformation complete.
	(OV|OV)...
	Starting second half-transformation.
	Two-electron integral transformation complete.
	(OV|VV)...
	Starting second half-transformation.
	Two-electron integral transformation complete.
	(VV|OO)...
	Starting first half-transformation.
	Sorting half-transformed integrals.
	First half integral transformation complete.
	Starting second half-transformation.
	Two-electron integral transformation complete.
	(VV|OV)...
	Starting second half-transformation.
	Two-electron integral transformation complete.
	(VV|VV)...
	Starting second half-transformation.
	Two-electron integral transformation complete.
	Frozen core energy     =      0.00000000000000

	Size of irrep 0 of <ab|cd> integrals:      0.108 (MW) /      0.866 (MB)
	Size of irrep 1 of <ab|cd> integrals:      0.034 (MW) /      0.271 (MB)
	Size of irrep 2 of <ab|cd> integrals:      0.062 (MW) /      0.500 (MB)
	Size of irrep 3 of <ab|cd> integrals:      0.062 (MW) /      0.500 (MB)
	Size of irrep 4 of <ab|cd> integrals:      0.034 (MW) /      0.271 (MB)
	Size of irrep 5 of <ab|cd> integrals:      0.108 (MW) /      0.861 (MB)
	Size of irrep 6 of <ab|cd> integrals:      0.062 (MW) /      0.500 (MB)
	Size of irrep 7 of <ab|cd> integrals:      0.062 (MW) /      0.500 (MB)
	Total:                                     0.534 (MW) /      4.268 (MB)

	Size of irrep 0 of <ia|bc> integrals:      0.003 (MW) /      0.026 (MB)
	Size of irrep 1 of <ia|bc> integrals:      0.000 (MW) /      0.003 (MB)
	Size of irrep 2 of <ia|bc> integrals:      0.001 (MW) /      0.010 (MB)
	Size of irrep 3 of <ia|bc> integrals:      0.001 (MW) /      0.010 (MB)
	Size of irrep 4 of <ia|bc> integrals:      0.000 (MW) /      0.003 (MB)
	Size of irrep 5 of <ia|bc> integrals:      0.004 (MW) /      0.029 (MB)
	Size of irrep 6 of <ia|bc> integrals:      0.001 (MW) /      0.010 (MB)
	Size of irrep 7 of <ia|bc> integrals:      0.001 (MW) /      0.010 (MB)
	Total:                                     0.013 (MW) /      0.101 (MB)

	Size of irrep 0 of tijab amplitudes:       0.000 (MW) /      0.003 (MB)
	Size of irrep 1 of tijab amplitudes:       0.000 (MW) /      0.000 (MB)
	Size of irrep 2 of tijab amplitudes:       0.000 (MW) /      0.000 (MB)
	Size of irrep 3 of tijab amplitudes:       0.000 (MW) /      0.000 (MB)
	Size of irrep 4 of tijab amplitudes:       0.000 (MW) /      0.000 (MB)
	Size of irrep 5 of tijab amplitudes:       0.000 (MW) /      0.000 (MB)
	Size of irrep 6 of tijab amplitudes:       0.000 (MW) /      0.000 (MB)
	Size of irrep 7 of tijab amplitudes:       0.000 (MW) /      0.000 (MB)
	Total:                                     0.000 (MW) /      0.003 (MB)

	Nuclear Rep. energy          =      1.76392403556667
	SCF energy                   =     -0.65680346473820
	One-electron energy          =     -3.28803241078029
	Two-electron energy          =      0.86730491047541
	Reference energy             =     -0.65680346473821

*** tstop() called on clydes-mbp.haverford.edu at Mon Mar 25 16:36:53 2024
Module time:
	user time   =       0.06 seconds =       0.00 minutes
	system time =       0.09 seconds =       0.00 minutes
	total time  =          0 seconds =       0.00 minutes
Total time:
	user time   =       0.50 seconds =       0.01 minutes
	system time =       0.22 seconds =       0.00 minutes
	total time  =          1 seconds =       0.02 minutes
            **************************
            *                        *
            *        CCENERGY        *
            *                        *
            **************************

    Nuclear Rep. energy (wfn)     =    1.763924035566667
    SCF energy          (wfn)     =   -0.656803464738202
    Reference energy    (file100) =   -0.656803464738214

    Input parameters:
    -----------------
    Wave function   =     CCSD_T
    Reference wfn   =     RHF
    Brueckner       =     No
    Memory (Mbytes) =     524.3
    Maxiter         =     50
    R_Convergence   =     1.0e-07
    E_Convergence   =     1.0e-06
    Restart         =     Yes
    DIIS            =     Yes
    AO Basis        =     NONE
    ABCD            =     NEW
    Cache Level     =     2
    Cache Type      =     LOW
    Print Level     =     1
    Num. of threads =     1
    # Amps to Print =     10
    Print MP2 Amps? =     No
    Analyze T2 Amps =     No
    Print Pair Ener =     No
    Local CC        =     No
    SCS-MP2         =     False
    SCSN-MP2        =     False
    SCS-CCSD        =     False

MP2 correlation energy -0.0310656697588884
                Solving CC Amplitude Equations
                ------------------------------
  Iter             Energy              RMS        T1Diag      D1Diag    New D1Diag    D2Diag
  ----     ---------------------    ---------   ----------  ----------  ----------   --------
     0        -0.031065669758888    0.000e+00    0.000000    0.000000    0.000000    0.080939
     1        -0.035681992378669    1.572e-02    0.000469    0.000664    0.000664    0.095145
     2        -0.037026870603883    4.049e-03    0.000648    0.000916    0.000916    0.099860
     3        -0.037029827255562    3.407e-04    0.000741    0.001048    0.001048    0.099977
     4        -0.037028718415533    8.729e-05    0.000775    0.001096    0.001096    0.100000
     5        -0.037028234043797    1.520e-05    0.000782    0.001105    0.001105    0.099999
     6        -0.037028223111445    2.664e-06    0.000782    0.001107    0.001107    0.099999
     7        -0.037028241293590    6.016e-07    0.000783    0.001107    0.001107    0.099999
     8        -0.037028242223977    7.181e-08    0.000783    0.001107    0.001107    0.099999

    Iterations converged.


    Largest TIA Amplitudes:
              0   6         0.0006614777
              0   0        -0.0004785948
              0   4        -0.0004329709
              0   1        -0.0004078986
              0   5         0.0003241343
              0   2        -0.0003095910
              0   9         0.0000503022
              0   8        -0.0000324748

    Largest TIjAb Amplitudes:
      0   0  36  36        -0.0266438494
      0   0  41  41        -0.0266438494
      0   0   5   5        -0.0248251461
      0   0   2   5        -0.0199585848
      0   0   5   2        -0.0199585848
      0   0   2   2        -0.0195278745
      0   0  38  38        -0.0139826669
      0   0  43  43        -0.0139826669
      0   0  27  27        -0.0139342137
      0   0  30  30        -0.0136489928

    SCF energy       (wfn)                    =   -0.656803464738202
    Reference energy (file100)                =   -0.656803464738214

    Opposite-spin MP2 correlation energy      =   -0.031065669758888
    Same-spin MP2 correlation energy          =    0.000000000000000
    Singles MP2 correlation energy            =   -0.000000000000000
    MP2 correlation energy                    =   -0.031065669758888
      * MP2 total energy                      =   -0.687869134497103

    Opposite-spin CCSD correlation energy     =   -0.037028242223977
    Same-spin CCSD correlation energy         =    0.000000000000000
    Singles CCSD correlation energy           =    0.000000000000000
    CCSD correlation energy                   =   -0.037028242223977
      * CCSD total energy                     =   -0.693831706962191

            **************************
            *                        *
            *        CCTRIPLES       *
            *                        *
            **************************


    Wave function   =    CCSD_T
    Reference wfn   =      RHF

    Nuclear Rep. energy (wfn)                =    1.763924035566667
    SCF energy          (wfn)                =   -0.656803464738202
    Reference energy    (file100)            =   -0.656803464738214
    CCSD energy         (file100)            =   -0.037028242223977
    Total CCSD energy   (file100)            =   -0.693831706962191

    Number of ijk index combinations:                1
    Memory available in words               :        65536000
    Approx. words needed per explicit thread:            5324
    Number of threads for explicit ijk threading:    1

    MKL num_threads set to 1 for explicit threading.

    (T) energy                                =    0.000000000000000
      * CCSD(T) total energy                  =   -0.693831706962191


Scratch directory: /tmp/
   => Libint2 <=

    Primary   basis highest AM E, G, H:  6, 6, 3
    Auxiliary basis highest AM E, G, H:  7, 7, 4
    Onebody   basis highest AM E, G, H:  -, -, -
    Solid Harmonics ordering:            Gaussian

*** tstart() called on clydes-mbp.haverford.edu
*** at Mon Mar 25 16:36:54 2024

   => Loading Basis Set <=

    Name: AUG-CC-PVTZ
    Role: ORBITAL
    Keyword: BASIS
    atoms 1-2 entry H          line    40 file /Users/clydedaly/anaconda3/envs/psi4/share/psi4/basis/aug-cc-pvtz.gbs 


         ---------------------------------------------------------
                                   SCF
               by Justin Turney, Rob Parrish, Andy Simmonett
                          and Daniel G. A. Smith
                              RHF Reference
                        1 Threads,    500 MiB Core
         ---------------------------------------------------------

  ==> Geometry <==

    Molecular point group: d2h
    Full point group: D_inf_h

    Geometry (in Angstrom), charge = 0, multiplicity = 1:

       Center              X                  Y                   Z               Mass       
    ------------   -----------------  -----------------  -----------------  -----------------
         H            0.000000000000     0.000000000000    -0.158585858586     1.007825032230
         H            0.000000000000     0.000000000000     0.158585858586     1.007825032230

  Running in d2h symmetry.

  Rotational constants: A = ************  B =    332.54655  C =    332.54655 [cm^-1]
  Rotational constants: A = ************  B = 9969494.70279  C = 9969494.70279 [MHz]
  Nuclear repulsion =    1.668424963577389

  Charge       = 0
  Multiplicity = 1
  Electrons    = 2
  Nalpha       = 1
  Nbeta        = 1

  ==> Algorithm <==

  SCF Algorithm Type is PK.
  DIIS enabled.
  MOM disabled.
  Fractional occupation disabled.
  Guess Type is SAD.
  Energy threshold   = 1.00e-08
  Density threshold  = 1.00e-08
  Integral threshold = 1.00e-12

  ==> Primary Basis <==

  Basis Set: AUG-CC-PVTZ
    Blend: AUG-CC-PVTZ
    Number of shells: 18
    Number of basis functions: 46
    Number of Cartesian functions: 50
    Spherical Harmonics?: true
    Max angular momentum: 2

  ==> Integral Setup <==

  Using in-core PK algorithm.
   Calculation information:
      Number of atoms:                   2
      Number of AO shells:              18
      Number of primitives:             22
      Number of atomic orbitals:        50
      Number of basis functions:        46

      Integral cutoff                 1.00e-12
      Number of threads:                 1

  Performing in-core PK
  Using 1169642 doubles for integral storage.
  We computed 14706 shell quartets total.
  Whereas there are 14706 unique shell quartets.

  ==> DiskJK: Disk-Based J/K Matrices <==

    J tasked:                  Yes
    K tasked:                  Yes
    wK tasked:                  No
    Memory [MiB]:              375
    Schwarz Cutoff:          1E-12

    OpenMP threads:              1

  Minimum eigenvalue in the overlap matrix is 1.2772251527E-05.
  Reciprocal condition number of the overlap matrix is 2.7616944721E-06.
    Using symmetric orthogonalization.

  ==> Pre-Iterations <==

  SCF Guess: Superposition of Atomic Densities via on-the-fly atomic UHF (no occupation information).

   -------------------------
    Irrep   Nso     Nmo    
   -------------------------
     Ag        11      11 
     B1g        2       2 
     B2g        5       5 
     B3g        5       5 
     Au         2       2 
     B1u       11      11 
     B2u        5       5 
     B3u        5       5 
   -------------------------
    Total      46      46
   -------------------------

  ==> Iterations <==

                        Total Energy        Delta E     RMS |[F,P]|

   @RHF iter SAD:    -0.27593222486572   -2.75932e-01   0.00000e+00 
   @RHF iter   1:    -0.71995186137547   -4.44020e-01   3.22967e-03 ADIIS/DIIS
   @RHF iter   2:    -0.72388771867426   -3.93586e-03   7.33582e-04 ADIIS/DIIS
   @RHF iter   3:    -0.72409356146242   -2.05843e-04   2.33947e-05 DIIS
   @RHF iter   4:    -0.72409371470641   -1.53244e-07   1.40576e-06 DIIS
   @RHF iter   5:    -0.72409371518718   -4.80768e-10   8.02175e-08 DIIS
   @RHF iter   6:    -0.72409371518952   -2.34235e-12   6.46585e-09 DIIS
  Energy and wave function converged.


  ==> Post-Iterations <==

    Orbital Energies [Eh]
    ---------------------

    Doubly Occupied:                                                      

       1Ag    -0.767720  

    Virtual:                                                              

       2Ag     0.048457     1B1u    0.055663     2B1u    0.219190  
       1B2u    0.221427     1B3u    0.221427     3Ag     0.284277  
       1B2g    0.299915     1B3g    0.299915     4Ag     0.385181  
       3B1u    0.470918     1B1g    0.819127     5Ag     0.819127  
       4B1u    0.823292     2B2g    0.902281     2B3g    0.902281  
       6Ag     0.968742     2B2u    0.986584     2B3u    0.986584  
       1Au     1.082274     5B1u    1.082274     3B3u    1.087540  
       3B2u    1.087540     6B1u    1.237231     7Ag     1.480793  
       7B1u    1.954188     3B3g    2.047233     3B2g    2.047233  
       8Ag     3.062129     2B1g    3.760487     9Ag     3.760487  
       4B3u    3.785397     4B2u    3.785397     8B1u    4.256181  
       4B3g    4.422142     4B2g    4.422142    10Ag     4.492221  
       9B1u    4.796663     2Au     4.796663     5B3u    4.823076  
       5B2u    4.823076    10B1u    5.080198     5B3g    8.415883  
       5B2g    8.415883    11Ag     9.666301    11B1u   14.998913  

    Final Occupation by Irrep:
             Ag   B1g   B2g   B3g    Au   B1u   B2u   B3u 
    DOCC [     1,    0,    0,    0,    0,    0,    0,    0 ]
    NA   [     1,    0,    0,    0,    0,    0,    0,    0 ]
    NB   [     1,    0,    0,    0,    0,    0,    0,    0 ]

  @RHF Final Energy:    -0.72409371518952

   => Energetics <=

    Nuclear Repulsion Energy =              1.6684249635773887
    One-Electron Energy =                  -3.2495977894372174
    Two-Electron Energy =                   0.8570791106703066
    Total Energy =                         -0.7240937151895221

Computation Completed


Properties will be evaluated at   0.000000,   0.000000,   0.000000 [a0]

Properties computed using the SCF density matrix


 Multipole Moments:

 ------------------------------------------------------------------------------------
     Multipole            Electronic (a.u.)      Nuclear  (a.u.)        Total (a.u.)
 ------------------------------------------------------------------------------------

 L = 1.  Multiply by 2.5417464519 to convert [e a0] to [Debye]
 Dipole X            :          0.0000000            0.0000000            0.0000000
 Dipole Y            :          0.0000000            0.0000000            0.0000000
 Dipole Z            :          0.0000000            0.0000000            0.0000000
 Magnitude           :                                                    0.0000000

 ------------------------------------------------------------------------------------

*** tstop() called on clydes-mbp.haverford.edu at Mon Mar 25 16:36:54 2024
Module time:
	user time   =       0.19 seconds =       0.00 minutes
	system time =       0.01 seconds =       0.00 minutes
	total time  =          0 seconds =       0.00 minutes
Total time:
	user time   =       0.77 seconds =       0.01 minutes
	system time =       0.43 seconds =       0.01 minutes
	total time  =          2 seconds =       0.03 minutes
 MINTS: Wrapper to libmints.
   by Justin Turney

   Calculation information:
      Number of threads:                 1
      Number of atoms:                   2
      Number of AO shells:              18
      Number of SO shells:               9
      Number of primitives:             22
      Number of atomic orbitals:        50
      Number of basis functions:        46

      Number of irreps:                  8
      Integral cutoff                 1.00e-12
      Number of functions per irrep: [  11    2    5    5    2   11    5    5 ]

 OEINTS: Overlap, kinetic, potential, dipole, and quadrupole integrals
         stored in file 35.

      Computing two-electron integrals...done
      Computed 69839 non-zero two-electron integrals.
        Stored in file 33.


*** tstart() called on clydes-mbp.haverford.edu
*** at Mon Mar 25 16:36:54 2024


	Wfn Parameters:
	--------------------
	Wavefunction         = CCSD_T
	Number of irreps     = 8
	Number of MOs        = 46
	Number of active MOs = 46
	AO-Basis             = NONE
	Semicanonical        = false
	Reference            = RHF
	Print Level          = 1

	IRREP	# MOs	# FZDC	# DOCC	# SOCC	# VIRT	# FZVR
	-----	-----	------	------	------	------	------
	 Ag	   11	    0	    1	    0	    10	    0
	 B1g	   2	    0	    0	    0	    2	    0
	 B2g	   5	    0	    0	    0	    5	    0
	 B3g	   5	    0	    0	    0	    5	    0
	 Au	   2	    0	    0	    0	    2	    0
	 B1u	   11	    0	    0	    0	    11	    0
	 B2u	   5	    0	    0	    0	    5	    0
	 B3u	   5	    0	    0	    0	    5	    0
	Transforming integrals...
	IWL integrals will be deleted.
	(OO|OO)...
	Presorting SO-basis two-electron integrals.
	Sorting File: SO Ints (nn|nn) nbuckets = 1
	Constructing frozen core operators
	Starting first half-transformation.
	Sorting half-transformed integrals.
	First half integral transformation complete.
	Starting second half-transformation.
	Two-electron integral transformation complete.
	(OO|OV)...
	Starting second half-transformation.
	Two-electron integral transformation complete.
	(OO|VV)...
	Starting second half-transformation.
	Two-electron integral transformation complete.
	(OV|OO)...
	Starting first half-transformation.
	Sorting half-transformed integrals.
	First half integral transformation complete.
	Starting second half-transformation.
	Two-electron integral transformation complete.
	(OV|OV)...
	Starting second half-transformation.
	Two-electron integral transformation complete.
	(OV|VV)...
	Starting second half-transformation.
	Two-electron integral transformation complete.
	(VV|OO)...
	Starting first half-transformation.
	Sorting half-transformed integrals.
	First half integral transformation complete.
	Starting second half-transformation.
	Two-electron integral transformation complete.
	(VV|OV)...
	Starting second half-transformation.
	Two-electron integral transformation complete.
	(VV|VV)...
	Starting second half-transformation.
	Two-electron integral transformation complete.
	Frozen core energy     =      0.00000000000000

	Size of irrep 0 of <ab|cd> integrals:      0.108 (MW) /      0.866 (MB)
	Size of irrep 1 of <ab|cd> integrals:      0.034 (MW) /      0.271 (MB)
	Size of irrep 2 of <ab|cd> integrals:      0.062 (MW) /      0.500 (MB)
	Size of irrep 3 of <ab|cd> integrals:      0.062 (MW) /      0.500 (MB)
	Size of irrep 4 of <ab|cd> integrals:      0.034 (MW) /      0.271 (MB)
	Size of irrep 5 of <ab|cd> integrals:      0.108 (MW) /      0.861 (MB)
	Size of irrep 6 of <ab|cd> integrals:      0.062 (MW) /      0.500 (MB)
	Size of irrep 7 of <ab|cd> integrals:      0.062 (MW) /      0.500 (MB)
	Total:                                     0.534 (MW) /      4.268 (MB)

	Size of irrep 0 of <ia|bc> integrals:      0.003 (MW) /      0.026 (MB)
	Size of irrep 1 of <ia|bc> integrals:      0.000 (MW) /      0.003 (MB)
	Size of irrep 2 of <ia|bc> integrals:      0.001 (MW) /      0.010 (MB)
	Size of irrep 3 of <ia|bc> integrals:      0.001 (MW) /      0.010 (MB)
	Size of irrep 4 of <ia|bc> integrals:      0.000 (MW) /      0.003 (MB)
	Size of irrep 5 of <ia|bc> integrals:      0.004 (MW) /      0.029 (MB)
	Size of irrep 6 of <ia|bc> integrals:      0.001 (MW) /      0.010 (MB)
	Size of irrep 7 of <ia|bc> integrals:      0.001 (MW) /      0.010 (MB)
	Total:                                     0.013 (MW) /      0.101 (MB)

	Size of irrep 0 of tijab amplitudes:       0.000 (MW) /      0.003 (MB)
	Size of irrep 1 of tijab amplitudes:       0.000 (MW) /      0.000 (MB)
	Size of irrep 2 of tijab amplitudes:       0.000 (MW) /      0.000 (MB)
	Size of irrep 3 of tijab amplitudes:       0.000 (MW) /      0.000 (MB)
	Size of irrep 4 of tijab amplitudes:       0.000 (MW) /      0.000 (MB)
	Size of irrep 5 of tijab amplitudes:       0.000 (MW) /      0.000 (MB)
	Size of irrep 6 of tijab amplitudes:       0.000 (MW) /      0.000 (MB)
	Size of irrep 7 of tijab amplitudes:       0.000 (MW) /      0.000 (MB)
	Total:                                     0.000 (MW) /      0.003 (MB)

	Nuclear Rep. energy          =      1.66842496357739
	SCF energy                   =     -0.72409371518952
	One-electron energy          =     -3.24959778346827
	Two-electron energy          =      0.85707910470135
	Reference energy             =     -0.72409371518953

*** tstop() called on clydes-mbp.haverford.edu at Mon Mar 25 16:36:54 2024
Module time:
	user time   =       0.05 seconds =       0.00 minutes
	system time =       0.08 seconds =       0.00 minutes
	total time  =          0 seconds =       0.00 minutes
Total time:
	user time   =       0.85 seconds =       0.01 minutes
	system time =       0.52 seconds =       0.01 minutes
	total time  =          2 seconds =       0.03 minutes
            **************************
            *                        *
            *        CCENERGY        *
            *                        *
            **************************

    Nuclear Rep. energy (wfn)     =    1.668424963577389
    SCF energy          (wfn)     =   -0.724093715189522
    Reference energy    (file100) =   -0.724093715189533

    Input parameters:
    -----------------
    Wave function   =     CCSD_T
    Reference wfn   =     RHF
    Brueckner       =     No
    Memory (Mbytes) =     524.3
    Maxiter         =     50
    R_Convergence   =     1.0e-07
    E_Convergence   =     1.0e-06
    Restart         =     Yes
    DIIS            =     Yes
    AO Basis        =     NONE
    ABCD            =     NEW
    Cache Level     =     2
    Cache Type      =     LOW
    Print Level     =     1
    Num. of threads =     1
    # Amps to Print =     10
    Print MP2 Amps? =     No
    Analyze T2 Amps =     No
    Print Pair Ener =     No
    Local CC        =     No
    SCS-MP2         =     False
    SCSN-MP2        =     False
    SCS-CCSD        =     False

    Using old T1 amplitudes.
    Using old T2 amplitudes.

MP2 correlation energy -0.0310918135019508
                Solving CC Amplitude Equations
                ------------------------------
  Iter             Energy              RMS        T1Diag      D1Diag    New D1Diag    D2Diag
  ----     ---------------------    ---------   ----------  ----------  ----------   --------
     0        -0.036914966516716    0.000e+00    0.000783    0.001107    0.001107    0.099999
     1        -0.037043027656173    1.712e-03    0.000751    0.001062    0.001062    0.100712
     2        -0.037067291805653    3.649e-04    0.000766    0.001083    0.001083    0.100853
     3        -0.037073054817750    6.643e-05    0.000768    0.001087    0.001087    0.100887
     4        -0.037073530218145    7.814e-06    0.000770    0.001088    0.001088    0.100889
     5        -0.037073583072156    1.193e-06    0.000770    0.001088    0.001088    0.100889
     6        -0.037073588111934    2.046e-07    0.000770    0.001089    0.001089    0.100889
     7        -0.037073588068797    4.355e-08    0.000770    0.001089    0.001089    0.100889

    Iterations converged.


    Largest TIA Amplitudes:
              0   6         0.0007258530
              0   4        -0.0004783944
              0   0        -0.0003866967
              0   5         0.0003840859
              0   1        -0.0003256236
              0   2        -0.0001412636
              0   9         0.0000645830
              0   8        -0.0000448624

    Largest TIjAb Amplitudes:
      0   0  36  36        -0.0269751576
      0   0  41  41        -0.0269751576
      0   0   5   5        -0.0245496537
      0   0   2   5        -0.0199916627
      0   0   5   2        -0.0199916627
      0   0   2   2        -0.0199181991
      0   0  27  27        -0.0145823539
      0   0  38  38        -0.0137827675
      0   0  43  43        -0.0137827675
      0   0  30  30        -0.0136432843

    SCF energy       (wfn)                    =   -0.724093715189522
    Reference energy (file100)                =   -0.724093715189533

    Opposite-spin MP2 correlation energy      =   -0.031091813501951
    Same-spin MP2 correlation energy          =   -0.000000000000000
    Singles MP2 correlation energy            =   -0.000000000000000
    MP2 correlation energy                    =   -0.031091813501951
      * MP2 total energy                      =   -0.755185528691484

    Opposite-spin CCSD correlation energy     =   -0.037073588068797
    Same-spin CCSD correlation energy         =    0.000000000000000
    Singles CCSD correlation energy           =    0.000000000000000
    CCSD correlation energy                   =   -0.037073588068797
      * CCSD total energy                     =   -0.761167303258330

            **************************
            *                        *
            *        CCTRIPLES       *
            *                        *
            **************************


    Wave function   =    CCSD_T
    Reference wfn   =      RHF

    Nuclear Rep. energy (wfn)                =    1.668424963577389
    SCF energy          (wfn)                =   -0.724093715189522
    Reference energy    (file100)            =   -0.724093715189533
    CCSD energy         (file100)            =   -0.037073588068797
    Total CCSD energy   (file100)            =   -0.761167303258330

    Number of ijk index combinations:                1
    Memory available in words               :        65536000
    Approx. words needed per explicit thread:            5324
    Number of threads for explicit ijk threading:    1

    MKL num_threads set to 1 for explicit threading.

    (T) energy                                =   -0.000000000000000
      * CCSD(T) total energy                  =   -0.761167303258330


Scratch directory: /tmp/
   => Libint2 <=

    Primary   basis highest AM E, G, H:  6, 6, 3
    Auxiliary basis highest AM E, G, H:  7, 7, 4
    Onebody   basis highest AM E, G, H:  -, -, -
    Solid Harmonics ordering:            Gaussian

*** tstart() called on clydes-mbp.haverford.edu
*** at Mon Mar 25 16:36:54 2024

   => Loading Basis Set <=

    Name: AUG-CC-PVTZ
    Role: ORBITAL
    Keyword: BASIS
    atoms 1-2 entry H          line    40 file /Users/clydedaly/anaconda3/envs/psi4/share/psi4/basis/aug-cc-pvtz.gbs 


         ---------------------------------------------------------
                                   SCF
               by Justin Turney, Rob Parrish, Andy Simmonett
                          and Daniel G. A. Smith
                              RHF Reference
                        1 Threads,    500 MiB Core
         ---------------------------------------------------------

  ==> Geometry <==

    Molecular point group: d2h
    Full point group: D_inf_h

    Geometry (in Angstrom), charge = 0, multiplicity = 1:

       Center              X                  Y                   Z               Mass       
    ------------   -----------------  -----------------  -----------------  -----------------
         H            0.000000000000     0.000000000000    -0.167171717172     1.007825032230
         H            0.000000000000     0.000000000000     0.167171717172     1.007825032230

  Running in d2h symmetry.

  Rotational constants: A = ************  B =    299.26488  C =    299.26488 [cm^-1]
  Rotational constants: A = ************  B = 8971735.37770  C = 8971735.37770 [MHz]
  Nuclear repulsion =    1.582735463937463

  Charge       = 0
  Multiplicity = 1
  Electrons    = 2
  Nalpha       = 1
  Nbeta        = 1

  ==> Algorithm <==

  SCF Algorithm Type is PK.
  DIIS enabled.
  MOM disabled.
  Fractional occupation disabled.
  Guess Type is SAD.
  Energy threshold   = 1.00e-08
  Density threshold  = 1.00e-08
  Integral threshold = 1.00e-12

  ==> Primary Basis <==

  Basis Set: AUG-CC-PVTZ
    Blend: AUG-CC-PVTZ
    Number of shells: 18
    Number of basis functions: 46
    Number of Cartesian functions: 50
    Spherical Harmonics?: true
    Max angular momentum: 2

  ==> Integral Setup <==

  Using in-core PK algorithm.
   Calculation information:
      Number of atoms:                   2
      Number of AO shells:              18
      Number of primitives:             22
      Number of atomic orbitals:        50
      Number of basis functions:        46

      Integral cutoff                 1.00e-12
      Number of threads:                 1

  Performing in-core PK
  Using 1169642 doubles for integral storage.
  We computed 14706 shell quartets total.
  Whereas there are 14706 unique shell quartets.

  ==> DiskJK: Disk-Based J/K Matrices <==

    J tasked:                  Yes
    K tasked:                  Yes
    wK tasked:                  No
    Memory [MiB]:              375
    Schwarz Cutoff:          1E-12

    OpenMP threads:              1

  Minimum eigenvalue in the overlap matrix is 1.5220478587E-05.
  Reciprocal condition number of the overlap matrix is 3.2866604689E-06.
    Using symmetric orthogonalization.

  ==> Pre-Iterations <==

  SCF Guess: Superposition of Atomic Densities via on-the-fly atomic UHF (no occupation information).

   -------------------------
    Irrep   Nso     Nmo    
   -------------------------
     Ag        11      11 
     B1g        2       2 
     B2g        5       5 
     B3g        5       5 
     Au         2       2 
     B1u       11      11 
     B2u        5       5 
     B3u        5       5 
   -------------------------
    Total      46      46
   -------------------------

  ==> Iterations <==

                        Total Energy        Delta E     RMS |[F,P]|

   @RHF iter SAD:    -0.34515901364136   -3.45159e-01   0.00000e+00 
   @RHF iter   1:    -0.77787527934753   -4.32716e-01   3.19133e-03 ADIIS/DIIS
   @RHF iter   2:    -0.78178927686706   -3.91400e-03   7.26077e-04 ADIIS/DIIS
   @RHF iter   3:    -0.78199413272612   -2.04856e-04   2.48038e-05 DIIS
   @RHF iter   4:    -0.78199430740569   -1.74680e-07   1.44248e-06 DIIS
   @RHF iter   5:    -0.78199430791537   -5.09671e-10   8.28689e-08 DIIS
   @RHF iter   6:    -0.78199430791792   -2.55485e-12   6.61087e-09 DIIS
  Energy and wave function converged.


  ==> Post-Iterations <==

    Orbital Energies [Eh]
    ---------------------

    Doubly Occupied:                                                      

       1Ag    -0.758864  

    Virtual:                                                              

       2Ag     0.048639     1B1u    0.055678     2B1u    0.219535  
       1B2u    0.220944     1B3u    0.220944     3Ag     0.284448  
       1B2g    0.299830     1B3g    0.299830     4Ag     0.386366  
       3B1u    0.468657     4B1u    0.810528     1B1g    0.818163  
       5Ag     0.818163     2B2g    0.901759     2B3g    0.901759  
       6Ag     0.966710     2B2u    0.984020     2B3u    0.984020  
       1Au     1.081322     5B1u    1.081322     3B2u    1.086968  
       3B3u    1.086968     6B1u    1.239468     7Ag     1.483828  
       7B1u    1.931141     3B3g    2.045622     3B2g    2.045622  
       8Ag     3.062672     2B1g    3.752009     9Ag     3.752009  
       4B2u    3.779960     4B3u    3.779960     8B1u    4.173106  
       4B3g    4.416126     4B2g    4.416126    10Ag     4.479724  
       9B1u    4.783848     2Au     4.783848     5B2u    4.810735  
       5B3u    4.810735    10B1u    5.097194     5B3g    8.286815  
       5B2g    8.286815    11Ag     9.553238    11B1u   14.515556  

    Final Occupation by Irrep:
             Ag   B1g   B2g   B3g    Au   B1u   B2u   B3u 
    DOCC [     1,    0,    0,    0,    0,    0,    0,    0 ]
    NA   [     1,    0,    0,    0,    0,    0,    0,    0 ]
    NB   [     1,    0,    0,    0,    0,    0,    0,    0 ]

  @RHF Final Energy:    -0.78199430791792

   => Energetics <=

    Nuclear Repulsion Energy =              1.5827354639374627
    One-Electron Energy =                  -3.2117307067691927
    Two-Electron Energy =                   0.8470009349138099
    Total Energy =                         -0.7819943079179201

Computation Completed


Properties will be evaluated at   0.000000,   0.000000,   0.000000 [a0]

Properties computed using the SCF density matrix


 Multipole Moments:

 ------------------------------------------------------------------------------------
     Multipole            Electronic (a.u.)      Nuclear  (a.u.)        Total (a.u.)
 ------------------------------------------------------------------------------------

 L = 1.  Multiply by 2.5417464519 to convert [e a0] to [Debye]
 Dipole X            :          0.0000000            0.0000000            0.0000000
 Dipole Y            :          0.0000000            0.0000000            0.0000000
 Dipole Z            :          0.0000000            0.0000000            0.0000000
 Magnitude           :                                                    0.0000000

 ------------------------------------------------------------------------------------

*** tstop() called on clydes-mbp.haverford.edu at Mon Mar 25 16:36:54 2024
Module time:
	user time   =       0.16 seconds =       0.00 minutes
	system time =       0.01 seconds =       0.00 minutes
	total time  =          0 seconds =       0.00 minutes
Total time:
	user time   =       1.08 seconds =       0.02 minutes
	system time =       0.71 seconds =       0.01 minutes
	total time  =          2 seconds =       0.03 minutes
 MINTS: Wrapper to libmints.
   by Justin Turney

   Calculation information:
      Number of threads:                 1
      Number of atoms:                   2
      Number of AO shells:              18
      Number of SO shells:               9
      Number of primitives:             22
      Number of atomic orbitals:        50
      Number of basis functions:        46

      Number of irreps:                  8
      Integral cutoff                 1.00e-12
      Number of functions per irrep: [  11    2    5    5    2   11    5    5 ]

 OEINTS: Overlap, kinetic, potential, dipole, and quadrupole integrals
         stored in file 35.

      Computing two-electron integrals...done
      Computed 69839 non-zero two-electron integrals.
        Stored in file 33.


*** tstart() called on clydes-mbp.haverford.edu
*** at Mon Mar 25 16:36:54 2024


	Wfn Parameters:
	--------------------
	Wavefunction         = CCSD_T
	Number of irreps     = 8
	Number of MOs        = 46
	Number of active MOs = 46
	AO-Basis             = NONE
	Semicanonical        = false
	Reference            = RHF
	Print Level          = 1

	IRREP	# MOs	# FZDC	# DOCC	# SOCC	# VIRT	# FZVR
	-----	-----	------	------	------	------	------
	 Ag	   11	    0	    1	    0	    10	    0
	 B1g	   2	    0	    0	    0	    2	    0
	 B2g	   5	    0	    0	    0	    5	    0
	 B3g	   5	    0	    0	    0	    5	    0
	 Au	   2	    0	    0	    0	    2	    0
	 B1u	   11	    0	    0	    0	    11	    0
	 B2u	   5	    0	    0	    0	    5	    0
	 B3u	   5	    0	    0	    0	    5	    0
	Transforming integrals...
	IWL integrals will be deleted.
	(OO|OO)...
	Presorting SO-basis two-electron integrals.
	Sorting File: SO Ints (nn|nn) nbuckets = 1
	Constructing frozen core operators
	Starting first half-transformation.
	Sorting half-transformed integrals.
	First half integral transformation complete.
	Starting second half-transformation.
	Two-electron integral transformation complete.
	(OO|OV)...
	Starting second half-transformation.
	Two-electron integral transformation complete.
	(OO|VV)...
	Starting second half-transformation.
	Two-electron integral transformation complete.
	(OV|OO)...
	Starting first half-transformation.
	Sorting half-transformed integrals.
	First half integral transformation complete.
	Starting second half-transformation.
	Two-electron integral transformation complete.
	(OV|OV)...
	Starting second half-transformation.
	Two-electron integral transformation complete.
	(OV|VV)...
	Starting second half-transformation.
	Two-electron integral transformation complete.
	(VV|OO)...
	Starting first half-transformation.
	Sorting half-transformed integrals.
	First half integral transformation complete.
	Starting second half-transformation.
	Two-electron integral transformation complete.
	(VV|OV)...
	Starting second half-transformation.
	Two-electron integral transformation complete.
	(VV|VV)...
	Starting second half-transformation.
	Two-electron integral transformation complete.
	Frozen core energy     =      0.00000000000000

	Size of irrep 0 of <ab|cd> integrals:      0.108 (MW) /      0.866 (MB)
	Size of irrep 1 of <ab|cd> integrals:      0.034 (MW) /      0.271 (MB)
	Size of irrep 2 of <ab|cd> integrals:      0.062 (MW) /      0.500 (MB)
	Size of irrep 3 of <ab|cd> integrals:      0.062 (MW) /      0.500 (MB)
	Size of irrep 4 of <ab|cd> integrals:      0.034 (MW) /      0.271 (MB)
	Size of irrep 5 of <ab|cd> integrals:      0.108 (MW) /      0.861 (MB)
	Size of irrep 6 of <ab|cd> integrals:      0.062 (MW) /      0.500 (MB)
	Size of irrep 7 of <ab|cd> integrals:      0.062 (MW) /      0.500 (MB)
	Total:                                     0.534 (MW) /      4.268 (MB)

	Size of irrep 0 of <ia|bc> integrals:      0.003 (MW) /      0.026 (MB)
	Size of irrep 1 of <ia|bc> integrals:      0.000 (MW) /      0.003 (MB)
	Size of irrep 2 of <ia|bc> integrals:      0.001 (MW) /      0.010 (MB)
	Size of irrep 3 of <ia|bc> integrals:      0.001 (MW) /      0.010 (MB)
	Size of irrep 4 of <ia|bc> integrals:      0.000 (MW) /      0.003 (MB)
	Size of irrep 5 of <ia|bc> integrals:      0.004 (MW) /      0.029 (MB)
	Size of irrep 6 of <ia|bc> integrals:      0.001 (MW) /      0.010 (MB)
	Size of irrep 7 of <ia|bc> integrals:      0.001 (MW) /      0.010 (MB)
	Total:                                     0.013 (MW) /      0.101 (MB)

	Size of irrep 0 of tijab amplitudes:       0.000 (MW) /      0.003 (MB)
	Size of irrep 1 of tijab amplitudes:       0.000 (MW) /      0.000 (MB)
	Size of irrep 2 of tijab amplitudes:       0.000 (MW) /      0.000 (MB)
	Size of irrep 3 of tijab amplitudes:       0.000 (MW) /      0.000 (MB)
	Size of irrep 4 of tijab amplitudes:       0.000 (MW) /      0.000 (MB)
	Size of irrep 5 of tijab amplitudes:       0.000 (MW) /      0.000 (MB)
	Size of irrep 6 of tijab amplitudes:       0.000 (MW) /      0.000 (MB)
	Size of irrep 7 of tijab amplitudes:       0.000 (MW) /      0.000 (MB)
	Total:                                     0.000 (MW) /      0.003 (MB)

	Nuclear Rep. energy          =      1.58273546393746
	SCF energy                   =     -0.78199430791792
	One-electron energy          =     -3.21173069663383
	Two-electron energy          =      0.84700092477843
	Reference energy             =     -0.78199430791794

*** tstop() called on clydes-mbp.haverford.edu at Mon Mar 25 16:36:55 2024
Module time:
	user time   =       0.06 seconds =       0.00 minutes
	system time =       0.09 seconds =       0.00 minutes
	total time  =          1 seconds =       0.02 minutes
Total time:
	user time   =       1.16 seconds =       0.02 minutes
	system time =       0.80 seconds =       0.01 minutes
	total time  =          3 seconds =       0.05 minutes
            **************************
            *                        *
            *        CCENERGY        *
            *                        *
            **************************

    Nuclear Rep. energy (wfn)     =    1.582735463937463
    SCF energy          (wfn)     =   -0.781994307917920
    Reference energy    (file100) =   -0.781994307917936

    Input parameters:
    -----------------
    Wave function   =     CCSD_T
    Reference wfn   =     RHF
    Brueckner       =     No
    Memory (Mbytes) =     524.3
    Maxiter         =     50
    R_Convergence   =     1.0e-07
    E_Convergence   =     1.0e-06
    Restart         =     Yes
    DIIS            =     Yes
    AO Basis        =     NONE
    ABCD            =     NEW
    Cache Level     =     2
    Cache Type      =     LOW
    Print Level     =     1
    Num. of threads =     1
    # Amps to Print =     10
    Print MP2 Amps? =     No
    Analyze T2 Amps =     No
    Print Pair Ener =     No
    Local CC        =     No
    SCS-MP2         =     False
    SCSN-MP2        =     False
    SCS-CCSD        =     False

    Using old T1 amplitudes.
    Using old T2 amplitudes.

MP2 correlation energy -0.0311155937626389
                Solving CC Amplitude Equations
                ------------------------------
  Iter             Energy              RMS        T1Diag      D1Diag    New D1Diag    D2Diag
  ----     ---------------------    ---------   ----------  ----------  ----------   --------
     0        -0.032421789914081    0.000e+00    0.000770    0.001089    0.001089    0.100889
     1        -0.036288972661467    3.356e-02    0.001678    0.002373    0.002373    0.100088
     2        -0.037030134313984    5.325e-03    0.000840    0.001188    0.001188    0.101646
     3        -0.037115381813424    8.558e-04    0.000802    0.001135    0.001135    0.101821
     4        -0.037120544692291    1.579e-04    0.000796    0.001126    0.001126    0.101819
     5        -0.037119006945927    2.647e-05    0.000793    0.001121    0.001121    0.101810
     6        -0.037118686160750    4.616e-06    0.000792    0.001120    0.001120    0.101809
     7        -0.037118637595251    1.004e-06    0.000791    0.001119    0.001119    0.101808
     8        -0.037118635237523    1.896e-07    0.000791    0.001119    0.001119    0.101808
     9        -0.037118635879122    3.193e-08    0.000791    0.001119    0.001119    0.101808

    Iterations converged.


    Largest TIA Amplitudes:
              0   6         0.0007906814
              0   4        -0.0005279558
              0   5         0.0004390579
              0   0        -0.0002913466
              0   1        -0.0002455901
              0   9         0.0000801130
              0   8        -0.0000582300
              0   2         0.0000316999

    Largest TIjAb Amplitudes:
      0   0  36  36        -0.0272923544
      0   0  41  41        -0.0272923544
      0   0   5   5        -0.0242729523
      0   0   2   2        -0.0203039411
      0   0   2   5        -0.0200160100
      0   0   5   2        -0.0200160100
      0   0  27  27        -0.0152093288
      0   0  35  36         0.0137180135
      0   0  36  35         0.0137180135
      0   0  40  41         0.0137180135

    SCF energy       (wfn)                    =   -0.781994307917920
    Reference energy (file100)                =   -0.781994307917936

    Opposite-spin MP2 correlation energy      =   -0.031115593762639
    Same-spin MP2 correlation energy          =   -0.000000000000000
    Singles MP2 correlation energy            =   -0.000000000000000
    MP2 correlation energy                    =   -0.031115593762639
      * MP2 total energy                      =   -0.813109901680575

    Opposite-spin CCSD correlation energy     =   -0.037118635879122
    Same-spin CCSD correlation energy         =    0.000000000000000
    Singles CCSD correlation energy           =    0.000000000000000
    CCSD correlation energy                   =   -0.037118635879122
      * CCSD total energy                     =   -0.819112943797059

            **************************
            *                        *
            *        CCTRIPLES       *
            *                        *
            **************************


    Wave function   =    CCSD_T
    Reference wfn   =      RHF

    Nuclear Rep. energy (wfn)                =    1.582735463937463
    SCF energy          (wfn)                =   -0.781994307917920
    Reference energy    (file100)            =   -0.781994307917936
    CCSD energy         (file100)            =   -0.037118635879122
    Total CCSD energy   (file100)            =   -0.819112943797059

    Number of ijk index combinations:                1
    Memory available in words               :        65536000
    Approx. words needed per explicit thread:            5324
    Number of threads for explicit ijk threading:    1

    MKL num_threads set to 1 for explicit threading.

    (T) energy                                =   -0.000000000000000
      * CCSD(T) total energy                  =   -0.819112943797059


Scratch directory: /tmp/
   => Libint2 <=

    Primary   basis highest AM E, G, H:  6, 6, 3
    Auxiliary basis highest AM E, G, H:  7, 7, 4
    Onebody   basis highest AM E, G, H:  -, -, -
    Solid Harmonics ordering:            Gaussian

*** tstart() called on clydes-mbp.haverford.edu
*** at Mon Mar 25 16:36:55 2024

   => Loading Basis Set <=

    Name: AUG-CC-PVTZ
    Role: ORBITAL
    Keyword: BASIS
    atoms 1-2 entry H          line    40 file /Users/clydedaly/anaconda3/envs/psi4/share/psi4/basis/aug-cc-pvtz.gbs 


         ---------------------------------------------------------
                                   SCF
               by Justin Turney, Rob Parrish, Andy Simmonett
                          and Daniel G. A. Smith
                              RHF Reference
                        1 Threads,    500 MiB Core
         ---------------------------------------------------------

  ==> Geometry <==

    Molecular point group: d2h
    Full point group: D_inf_h

    Geometry (in Angstrom), charge = 0, multiplicity = 1:

       Center              X                  Y                   Z               Mass       
    ------------   -----------------  -----------------  -----------------  -----------------
         H            0.000000000000     0.000000000000    -0.175757575758     1.007825032230
         H            0.000000000000     0.000000000000     0.175757575758     1.007825032230

  Running in d2h symmetry.

  Rotational constants: A = ************  B =    270.74052  C =    270.74052 [cm^-1]
  Rotational constants: A = ************  B = 8116596.47672  C = 8116596.47672 [MHz]
  Nuclear repulsion =    1.505417926906035

  Charge       = 0
  Multiplicity = 1
  Electrons    = 2
  Nalpha       = 1
  Nbeta        = 1

  ==> Algorithm <==

  SCF Algorithm Type is PK.
  DIIS enabled.
  MOM disabled.
  Fractional occupation disabled.
  Guess Type is SAD.
  Energy threshold   = 1.00e-08
  Density threshold  = 1.00e-08
  Integral threshold = 1.00e-12

  ==> Primary Basis <==

  Basis Set: AUG-CC-PVTZ
    Blend: AUG-CC-PVTZ
    Number of shells: 18
    Number of basis functions: 46
    Number of Cartesian functions: 50
    Spherical Harmonics?: true
    Max angular momentum: 2

  ==> Integral Setup <==

  Using in-core PK algorithm.
   Calculation information:
      Number of atoms:                   2
      Number of AO shells:              18
      Number of primitives:             22
      Number of atomic orbitals:        50
      Number of basis functions:        46

      Integral cutoff                 1.00e-12
      Number of threads:                 1

  Performing in-core PK
  Using 1169642 doubles for integral storage.
  We computed 14706 shell quartets total.
  Whereas there are 14706 unique shell quartets.

  ==> DiskJK: Disk-Based J/K Matrices <==

    J tasked:                  Yes
    K tasked:                  Yes
    wK tasked:                  No
    Memory [MiB]:              375
    Schwarz Cutoff:          1E-12

    OpenMP threads:              1

  Minimum eigenvalue in the overlap matrix is 1.8091641962E-05.
  Reciprocal condition number of the overlap matrix is 3.9014278794E-06.
    Using symmetric orthogonalization.

  ==> Pre-Iterations <==

  SCF Guess: Superposition of Atomic Densities via on-the-fly atomic UHF (no occupation information).

   -------------------------
    Irrep   Nso     Nmo    
   -------------------------
     Ag        11      11 
     B1g        2       2 
     B2g        5       5 
     B3g        5       5 
     Au         2       2 
     B1u       11      11 
     B2u        5       5 
     B3u        5       5 
   -------------------------
    Total      46      46
   -------------------------

  ==> Iterations <==

                        Total Energy        Delta E     RMS |[F,P]|

   @RHF iter SAD:    -0.40587154766244   -4.05872e-01   0.00000e+00 
   @RHF iter   1:    -0.82787841946674   -4.22007e-01   3.15444e-03 ADIIS/DIIS
   @RHF iter   2:    -0.83176970528444   -3.89129e-03   7.18522e-04 ADIIS/DIIS
   @RHF iter   3:    -0.83197349449799   -2.03789e-04   2.62599e-05 DIIS
   @RHF iter   4:    -0.83197369318460   -1.98687e-07   1.47840e-06 DIIS
   @RHF iter   5:    -0.83197369372554   -5.40940e-10   8.57801e-08 DIIS
   @RHF iter   6:    -0.83197369372834   -2.79521e-12   6.78129e-09 DIIS
  Energy and wave function converged.


  ==> Post-Iterations <==

    Orbital Energies [Eh]
    ---------------------

    Doubly Occupied:                                                      

       1Ag    -0.750155  

    Virtual:                                                              

       2Ag     0.048822     1B1u    0.055676     2B1u    0.219697  
       1B2u    0.220454     1B3u    0.220454     3Ag     0.284607  
       1B2g    0.299757     1B3g    0.299757     4Ag     0.387564  
       3B1u    0.466638     4B1u    0.798331     5Ag     0.817175  
       1B1g    0.817175     2B2g    0.901304     2B3g    0.901304  
       6Ag     0.964635     2B2u    0.981475     2B3u    0.981475  
       1Au     1.080328     5B1u    1.080328     3B2u    1.086374  
       3B3u    1.086374     6B1u    1.240927     7Ag     1.486826  
       7B1u    1.909375     3B2g    2.044237     3B3g    2.044237  
       8Ag     3.062795     9Ag     3.743507     2B1g    3.743507  
       4B3u    3.774520     4B2u    3.774520     8B1u    4.088875  
       4B3g    4.411574     4B2g    4.411574    10Ag     4.467511  
       2Au     4.770628     9B1u    4.770628     5B2u    4.797933  
       5B3u    4.797933    10B1u    5.116313     5B3g    8.152325  
       5B2g    8.152325    11Ag     9.433360    11B1u   14.037945  

    Final Occupation by Irrep:
             Ag   B1g   B2g   B3g    Au   B1u   B2u   B3u 
    DOCC [     1,    0,    0,    0,    0,    0,    0,    0 ]
    NA   [     1,    0,    0,    0,    0,    0,    0,    0 ]
    NB   [     1,    0,    0,    0,    0,    0,    0,    0 ]

  @RHF Final Energy:    -0.83197369372834

   => Energetics <=

    Nuclear Repulsion Energy =              1.5054179269060348
    One-Electron Energy =                  -3.1744734815331057
    Two-Electron Energy =                   0.8370818608987352
    Total Energy =                         -0.8319736937283357

Computation Completed


Properties will be evaluated at   0.000000,   0.000000,   0.000000 [a0]

Properties computed using the SCF density matrix


 Multipole Moments:

 ------------------------------------------------------------------------------------
     Multipole            Electronic (a.u.)      Nuclear  (a.u.)        Total (a.u.)
 ------------------------------------------------------------------------------------

 L = 1.  Multiply by 2.5417464519 to convert [e a0] to [Debye]
 Dipole X            :          0.0000000            0.0000000            0.0000000
 Dipole Y            :          0.0000000            0.0000000            0.0000000
 Dipole Z            :          0.0000000            0.0000000            0.0000000
 Magnitude           :                                                    0.0000000

 ------------------------------------------------------------------------------------

*** tstop() called on clydes-mbp.haverford.edu at Mon Mar 25 16:36:55 2024
Module time:
	user time   =       0.20 seconds =       0.00 minutes
	system time =       0.01 seconds =       0.00 minutes
	total time  =          0 seconds =       0.00 minutes
Total time:
	user time   =       1.44 seconds =       0.02 minutes
	system time =       1.04 seconds =       0.02 minutes
	total time  =          3 seconds =       0.05 minutes
 MINTS: Wrapper to libmints.
   by Justin Turney

   Calculation information:
      Number of threads:                 1
      Number of atoms:                   2
      Number of AO shells:              18
      Number of SO shells:               9
      Number of primitives:             22
      Number of atomic orbitals:        50
      Number of basis functions:        46

      Number of irreps:                  8
      Integral cutoff                 1.00e-12
      Number of functions per irrep: [  11    2    5    5    2   11    5    5 ]

 OEINTS: Overlap, kinetic, potential, dipole, and quadrupole integrals
         stored in file 35.

      Computing two-electron integrals...done
      Computed 69839 non-zero two-electron integrals.
        Stored in file 33.


*** tstart() called on clydes-mbp.haverford.edu
*** at Mon Mar 25 16:36:55 2024


	Wfn Parameters:
	--------------------
	Wavefunction         = CCSD_T
	Number of irreps     = 8
	Number of MOs        = 46
	Number of active MOs = 46
	AO-Basis             = NONE
	Semicanonical        = false
	Reference            = RHF
	Print Level          = 1

	IRREP	# MOs	# FZDC	# DOCC	# SOCC	# VIRT	# FZVR
	-----	-----	------	------	------	------	------
	 Ag	   11	    0	    1	    0	    10	    0
	 B1g	   2	    0	    0	    0	    2	    0
	 B2g	   5	    0	    0	    0	    5	    0
	 B3g	   5	    0	    0	    0	    5	    0
	 Au	   2	    0	    0	    0	    2	    0
	 B1u	   11	    0	    0	    0	    11	    0
	 B2u	   5	    0	    0	    0	    5	    0
	 B3u	   5	    0	    0	    0	    5	    0
	Transforming integrals...
	IWL integrals will be deleted.
	(OO|OO)...
	Presorting SO-basis two-electron integrals.
	Sorting File: SO Ints (nn|nn) nbuckets = 1
	Constructing frozen core operators
	Starting first half-transformation.
	Sorting half-transformed integrals.
	First half integral transformation complete.
	Starting second half-transformation.
	Two-electron integral transformation complete.
	(OO|OV)...
	Starting second half-transformation.
	Two-electron integral transformation complete.
	(OO|VV)...
	Starting second half-transformation.
	Two-electron integral transformation complete.
	(OV|OO)...
	Starting first half-transformation.
	Sorting half-transformed integrals.
	First half integral transformation complete.
	Starting second half-transformation.
	Two-electron integral transformation complete.
	(OV|OV)...
	Starting second half-transformation.
	Two-electron integral transformation complete.
	(OV|VV)...
	Starting second half-transformation.
	Two-electron integral transformation complete.
	(VV|OO)...
	Starting first half-transformation.
	Sorting half-transformed integrals.
	First half integral transformation complete.
	Starting second half-transformation.
	Two-electron integral transformation complete.
	(VV|OV)...
	Starting second half-transformation.
	Two-electron integral transformation complete.
	(VV|VV)...
	Starting second half-transformation.
	Two-electron integral transformation complete.
	Frozen core energy     =      0.00000000000000

	Size of irrep 0 of <ab|cd> integrals:      0.108 (MW) /      0.866 (MB)
	Size of irrep 1 of <ab|cd> integrals:      0.034 (MW) /      0.271 (MB)
	Size of irrep 2 of <ab|cd> integrals:      0.062 (MW) /      0.500 (MB)
	Size of irrep 3 of <ab|cd> integrals:      0.062 (MW) /      0.500 (MB)
	Size of irrep 4 of <ab|cd> integrals:      0.034 (MW) /      0.271 (MB)
	Size of irrep 5 of <ab|cd> integrals:      0.108 (MW) /      0.861 (MB)
	Size of irrep 6 of <ab|cd> integrals:      0.062 (MW) /      0.500 (MB)
	Size of irrep 7 of <ab|cd> integrals:      0.062 (MW) /      0.500 (MB)
	Total:                                     0.534 (MW) /      4.268 (MB)

	Size of irrep 0 of <ia|bc> integrals:      0.003 (MW) /      0.026 (MB)
	Size of irrep 1 of <ia|bc> integrals:      0.000 (MW) /      0.003 (MB)
	Size of irrep 2 of <ia|bc> integrals:      0.001 (MW) /      0.010 (MB)
	Size of irrep 3 of <ia|bc> integrals:      0.001 (MW) /      0.010 (MB)
	Size of irrep 4 of <ia|bc> integrals:      0.000 (MW) /      0.003 (MB)
	Size of irrep 5 of <ia|bc> integrals:      0.004 (MW) /      0.029 (MB)
	Size of irrep 6 of <ia|bc> integrals:      0.001 (MW) /      0.010 (MB)
	Size of irrep 7 of <ia|bc> integrals:      0.001 (MW) /      0.010 (MB)
	Total:                                     0.013 (MW) /      0.101 (MB)

	Size of irrep 0 of tijab amplitudes:       0.000 (MW) /      0.003 (MB)
	Size of irrep 1 of tijab amplitudes:       0.000 (MW) /      0.000 (MB)
	Size of irrep 2 of tijab amplitudes:       0.000 (MW) /      0.000 (MB)
	Size of irrep 3 of tijab amplitudes:       0.000 (MW) /      0.000 (MB)
	Size of irrep 4 of tijab amplitudes:       0.000 (MW) /      0.000 (MB)
	Size of irrep 5 of tijab amplitudes:       0.000 (MW) /      0.000 (MB)
	Size of irrep 6 of tijab amplitudes:       0.000 (MW) /      0.000 (MB)
	Size of irrep 7 of tijab amplitudes:       0.000 (MW) /      0.000 (MB)
	Total:                                     0.000 (MW) /      0.003 (MB)

	Nuclear Rep. energy          =      1.50541792690603
	SCF energy                   =     -0.83197369372834
	One-electron energy          =     -3.17447346658684
	Two-electron energy          =      0.83708184595245
	Reference energy             =     -0.83197369372835

*** tstop() called on clydes-mbp.haverford.edu at Mon Mar 25 16:36:55 2024
Module time:
	user time   =       0.05 seconds =       0.00 minutes
	system time =       0.10 seconds =       0.00 minutes
	total time  =          0 seconds =       0.00 minutes
Total time:
	user time   =       1.52 seconds =       0.03 minutes
	system time =       1.15 seconds =       0.02 minutes
	total time  =          3 seconds =       0.05 minutes
            **************************
            *                        *
            *        CCENERGY        *
            *                        *
            **************************

    Nuclear Rep. energy (wfn)     =    1.505417926906035
    SCF energy          (wfn)     =   -0.831973693728336
    Reference energy    (file100) =   -0.831973693728352

    Input parameters:
    -----------------
    Wave function   =     CCSD_T
    Reference wfn   =     RHF
    Brueckner       =     No
    Memory (Mbytes) =     524.3
    Maxiter         =     50
    R_Convergence   =     1.0e-07
    E_Convergence   =     1.0e-06
    Restart         =     Yes
    DIIS            =     Yes
    AO Basis        =     NONE
    ABCD            =     NEW
    Cache Level     =     2
    Cache Type      =     LOW
    Print Level     =     1
    Num. of threads =     1
    # Amps to Print =     10
    Print MP2 Amps? =     No
    Analyze T2 Amps =     No
    Print Pair Ener =     No
    Local CC        =     No
    SCS-MP2         =     False
    SCSN-MP2        =     False
    SCS-CCSD        =     False

    Using old T1 amplitudes.
    Using old T2 amplitudes.

MP2 correlation energy -0.0311375084796228
                Solving CC Amplitude Equations
                ------------------------------
  Iter             Energy              RMS        T1Diag      D1Diag    New D1Diag    D2Diag
  ----     ---------------------    ---------   ----------  ----------  ----------   --------
     0        -0.030768566091400    0.000e+00    0.000791    0.001119    0.001119    0.101808
     1        -0.035762928153508    5.675e-02    0.001517    0.002146    0.002146    0.097933
     2        -0.036877328461258    1.087e-02    0.000792    0.001121    0.001121    0.101596
     3        -0.037153334865334    2.559e-03    0.000798    0.001129    0.001129    0.102704
     4        -0.037166074656825    3.167e-04    0.000833    0.001178    0.001178    0.102767
     5        -0.037164661033256    7.025e-05    0.000845    0.001196    0.001196    0.102760
     6        -0.037164278280149    1.166e-05    0.000847    0.001197    0.001197    0.102758
     7        -0.037164163465916    2.876e-06    0.000847    0.001197    0.001197    0.102757
     8        -0.037164139817302    5.910e-07    0.000847    0.001197    0.001197    0.102757
     9        -0.037164139801189    9.712e-08    0.000847    0.001197    0.001197    0.102757

    Iterations converged.


    Largest TIA Amplitudes:
              0   6         0.0008560301
              0   4        -0.0005817517
              0   5         0.0004889591
              0   2         0.0002090609
              0   0        -0.0001925614
              0   1        -0.0001679775
              0   9         0.0000968353
              0   8        -0.0000725674

    Largest TIjAb Amplitudes:
      0   0  36  36        -0.0275946762
      0   0  41  41        -0.0275946762
      0   0   5   5        -0.0239947996
      0   0   2   2        -0.0206846251
      0   0   2   5        -0.0200315423
      0   0   5   2        -0.0200315423
      0   0  27  27        -0.0158100053
      0   0  35  36         0.0140299107
      0   0  36  35         0.0140299107
      0   0  40  41         0.0140299107

    SCF energy       (wfn)                    =   -0.831973693728336
    Reference energy (file100)                =   -0.831973693728352

    Opposite-spin MP2 correlation energy      =   -0.031137508479623
    Same-spin MP2 correlation energy          =    0.000000000000000
    Singles MP2 correlation energy            =   -0.000000000000000
    MP2 correlation energy                    =   -0.031137508479623
      * MP2 total energy                      =   -0.863111202207975

    Opposite-spin CCSD correlation energy     =   -0.037164139801189
    Same-spin CCSD correlation energy         =    0.000000000000000
    Singles CCSD correlation energy           =    0.000000000000000
    CCSD correlation energy                   =   -0.037164139801189
      * CCSD total energy                     =   -0.869137833529541

            **************************
            *                        *
            *        CCTRIPLES       *
            *                        *
            **************************


    Wave function   =    CCSD_T
    Reference wfn   =      RHF

    Nuclear Rep. energy (wfn)                =    1.505417926906035
    SCF energy          (wfn)                =   -0.831973693728336
    Reference energy    (file100)            =   -0.831973693728352
    CCSD energy         (file100)            =   -0.037164139801189
    Total CCSD energy   (file100)            =   -0.869137833529541

    Number of ijk index combinations:                1
    Memory available in words               :        65536000
    Approx. words needed per explicit thread:            5324
    Number of threads for explicit ijk threading:    1

    MKL num_threads set to 1 for explicit threading.

    (T) energy                                =    0.000000000000000
      * CCSD(T) total energy                  =   -0.869137833529541


Scratch directory: /tmp/
   => Libint2 <=

    Primary   basis highest AM E, G, H:  6, 6, 3
    Auxiliary basis highest AM E, G, H:  7, 7, 4
    Onebody   basis highest AM E, G, H:  -, -, -
    Solid Harmonics ordering:            Gaussian

*** tstart() called on clydes-mbp.haverford.edu
*** at Mon Mar 25 16:36:56 2024

   => Loading Basis Set <=

    Name: AUG-CC-PVTZ
    Role: ORBITAL
    Keyword: BASIS
    atoms 1-2 entry H          line    40 file /Users/clydedaly/anaconda3/envs/psi4/share/psi4/basis/aug-cc-pvtz.gbs 


         ---------------------------------------------------------
                                   SCF
               by Justin Turney, Rob Parrish, Andy Simmonett
                          and Daniel G. A. Smith
                              RHF Reference
                        1 Threads,    500 MiB Core
         ---------------------------------------------------------

  ==> Geometry <==

    Molecular point group: d2h
    Full point group: D_inf_h

    Geometry (in Angstrom), charge = 0, multiplicity = 1:

       Center              X                  Y                   Z               Mass       
    ------------   -----------------  -----------------  -----------------  -----------------
         H            0.000000000000     0.000000000000    -0.184343434343     1.007825032230
         H            0.000000000000     0.000000000000     0.184343434343     1.007825032230

  Running in d2h symmetry.

  Rotational constants: A = ************  B =    246.10816  C =    246.10816 [cm^-1]
  Rotational constants: A = ************  B = 7378136.98417  C = 7378136.98417 [MHz]
  Nuclear repulsion =    1.435302571406302

  Charge       = 0
  Multiplicity = 1
  Electrons    = 2
  Nalpha       = 1
  Nbeta        = 1

  ==> Algorithm <==

  SCF Algorithm Type is PK.
  DIIS enabled.
  MOM disabled.
  Fractional occupation disabled.
  Guess Type is SAD.
  Energy threshold   = 1.00e-08
  Density threshold  = 1.00e-08
  Integral threshold = 1.00e-12

  ==> Primary Basis <==

  Basis Set: AUG-CC-PVTZ
    Blend: AUG-CC-PVTZ
    Number of shells: 18
    Number of basis functions: 46
    Number of Cartesian functions: 50
    Spherical Harmonics?: true
    Max angular momentum: 2

  ==> Integral Setup <==

  Using in-core PK algorithm.
   Calculation information:
      Number of atoms:                   2
      Number of AO shells:              18
      Number of primitives:             22
      Number of atomic orbitals:        50
      Number of basis functions:        46

      Integral cutoff                 1.00e-12
      Number of threads:                 1

  Performing in-core PK
  Using 1169642 doubles for integral storage.
  We computed 14706 shell quartets total.
  Whereas there are 14706 unique shell quartets.

  ==> DiskJK: Disk-Based J/K Matrices <==

    J tasked:                  Yes
    K tasked:                  Yes
    wK tasked:                  No
    Memory [MiB]:              375
    Schwarz Cutoff:          1E-12

    OpenMP threads:              1

  Minimum eigenvalue in the overlap matrix is 2.1446225266E-05.
  Reciprocal condition number of the overlap matrix is 4.6187210570E-06.
    Using symmetric orthogonalization.

  ==> Pre-Iterations <==

  SCF Guess: Superposition of Atomic Densities via on-the-fly atomic UHF (no occupation information).

   -------------------------
    Irrep   Nso     Nmo    
   -------------------------
     Ag        11      11 
     B1g        2       2 
     B2g        5       5 
     B3g        5       5 
     Au         2       2 
     B1u       11      11 
     B2u        5       5 
     B3u        5       5 
   -------------------------
    Total      46      46
   -------------------------

  ==> Iterations <==

                        Total Energy        Delta E     RMS |[F,P]|

   @RHF iter SAD:    -0.45927805869612   -4.59278e-01   0.00000e+00 
   @RHF iter   1:    -0.87115461021083   -4.11877e-01   3.11890e-03 ADIIS/DIIS
   @RHF iter   2:    -0.87502227462979   -3.86766e-03   7.10938e-04 ADIIS/DIIS
   @RHF iter   3:    -0.87522492342026   -2.02649e-04   2.77393e-05 DIIS
   @RHF iter   4:    -0.87522514853164   -2.25111e-07   1.51337e-06 DIIS
   @RHF iter   5:    -0.87522514910599   -5.74356e-10   8.88883e-08 DIIS
   @RHF iter   6:    -0.87522514910906   -3.06632e-12   6.98475e-09 DIIS
  Energy and wave function converged.


  ==> Post-Iterations <==

    Orbital Energies [Eh]
    ---------------------

    Doubly Occupied:                                                      

       1Ag    -0.741598  

    Virtual:                                                              

       2Ag     0.049007     1B1u    0.055657     2B1u    0.219674  
       1B2u    0.219958     1B3u    0.219958     3Ag     0.284752  
       1B2g    0.299694     1B3g    0.299694     4Ag     0.388772  
[...]
      * MP2 total energy                      =   -0.980802555912396

    Opposite-spin CCSD correlation energy     =   -0.094060406279725
    Same-spin CCSD correlation energy         =    0.000000000000000
    Singles CCSD correlation energy           =    0.000000000000000
    CCSD correlation energy                   =   -0.094060406279726
      * CCSD total energy                     =   -1.022439710481634

            **************************
            *                        *
            *        CCTRIPLES       *
            *                        *
            **************************


    Wave function   =    CCSD_T
    Reference wfn   =      RHF

    Nuclear Rep. energy (wfn)                =    0.266879999268110
    SCF energy          (wfn)                =   -0.928379304201908
    Reference energy    (file100)            =   -0.928379304201909
    CCSD energy         (file100)            =   -0.094060406279726
    Total CCSD energy   (file100)            =   -1.022439710481634

    Number of ijk index combinations:                1
    Memory available in words               :        65536000
    Approx. words needed per explicit thread:            5324
    Number of threads for explicit ijk threading:    1

    MKL num_threads set to 1 for explicit threading.

    (T) energy                                =   -0.000000000000000
      * CCSD(T) total energy                  =   -1.022439710481634


Scratch directory: /tmp/
   => Libint2 <=

    Primary   basis highest AM E, G, H:  6, 6, 3
    Auxiliary basis highest AM E, G, H:  7, 7, 4
    Onebody   basis highest AM E, G, H:  -, -, -
    Solid Harmonics ordering:            Gaussian

*** tstart() called on clydes-mbp.haverford.edu
*** at Mon Mar 25 16:38:06 2024

   => Loading Basis Set <=

    Name: AUG-CC-PVTZ
    Role: ORBITAL
    Keyword: BASIS
    atoms 1-2 entry H          line    40 file /Users/clydedaly/anaconda3/envs/psi4/share/psi4/basis/aug-cc-pvtz.gbs 


         ---------------------------------------------------------
                                   SCF
               by Justin Turney, Rob Parrish, Andy Simmonett
                          and Daniel G. A. Smith
                              RHF Reference
                        1 Threads,    500 MiB Core
         ---------------------------------------------------------

  ==> Geometry <==

    Molecular point group: d2h
    Full point group: D_inf_h

    Geometry (in Angstrom), charge = 0, multiplicity = 1:

       Center              X                  Y                   Z               Mass       
    ------------   -----------------  -----------------  -----------------  -----------------
         H            0.000000000000     0.000000000000    -1.000000000000     1.007825032230
         H            0.000000000000     0.000000000000     1.000000000000     1.007825032230

  Running in d2h symmetry.

  Rotational constants: A = ************  B =      8.36337  C =      8.36337 [cm^-1]
  Rotational constants: A = ************  B = 250727.55324  C = 250727.55324 [MHz]
  Nuclear repulsion =    0.264588605335000

  Charge       = 0
  Multiplicity = 1
  Electrons    = 2
  Nalpha       = 1
  Nbeta        = 1

  ==> Algorithm <==

  SCF Algorithm Type is PK.
  DIIS enabled.
  MOM disabled.
  Fractional occupation disabled.
  Guess Type is SAD.
  Energy threshold   = 1.00e-08
  Density threshold  = 1.00e-08
  Integral threshold = 1.00e-12

  ==> Primary Basis <==

  Basis Set: AUG-CC-PVTZ
    Blend: AUG-CC-PVTZ
    Number of shells: 18
    Number of basis functions: 46
    Number of Cartesian functions: 50
    Spherical Harmonics?: true
    Max angular momentum: 2

  ==> Integral Setup <==

  Using in-core PK algorithm.
   Calculation information:
      Number of atoms:                   2
      Number of AO shells:              18
      Number of primitives:             22
      Number of atomic orbitals:        50
      Number of basis functions:        46

      Integral cutoff                 1.00e-12
      Number of threads:                 1

  Performing in-core PK
  Using 1169642 doubles for integral storage.
  We computed 14706 shell quartets total.
  Whereas there are 14706 unique shell quartets.

  ==> DiskJK: Disk-Based J/K Matrices <==

    J tasked:                  Yes
    K tasked:                  Yes
    wK tasked:                  No
    Memory [MiB]:              375
    Schwarz Cutoff:          1E-12

    OpenMP threads:              1

  Minimum eigenvalue in the overlap matrix is 9.3285557132E-03.
  Reciprocal condition number of the overlap matrix is 2.7117955780E-03.
    Using symmetric orthogonalization.

  ==> Pre-Iterations <==

  SCF Guess: Superposition of Atomic Densities via on-the-fly atomic UHF (no occupation information).

   -------------------------
    Irrep   Nso     Nmo    
   -------------------------
     Ag        11      11 
     B1g        2       2 
     B2g        5       5 
     B3g        5       5 
     Au         2       2 
     B1u       11      11 
     B2u        5       5 
     B3u        5       5 
   -------------------------
    Total      46      46
   -------------------------

  ==> Iterations <==

                        Total Energy        Delta E     RMS |[F,P]|

   @RHF iter SAD:    -0.74208662057207   -7.42087e-01   0.00000e+00 
   @RHF iter   1:    -0.92444628741787   -1.82360e-01   1.50849e-03 ADIIS/DIIS
   @RHF iter   2:    -0.92599388695695   -1.54760e-03   3.66312e-04 ADIIS/DIIS
   @RHF iter   3:    -0.92610685031173   -1.12963e-04   3.33704e-05 DIIS
   @RHF iter   4:    -0.92610773454445   -8.84233e-07   2.07170e-06 DIIS
   @RHF iter   5:    -0.92610773707118   -2.52673e-09   9.95231e-08 DIIS
   @RHF iter   6:    -0.92610773707856   -7.38332e-12   1.16566e-08 DIIS
   @RHF iter   7:    -0.92610773707865   -8.98170e-14   1.33216e-09 DIIS
  Energy and wave function converged.


  ==> Post-Iterations <==

    Orbital Energies [Eh]
    ---------------------

    Doubly Occupied:                                                      

       1Ag    -0.388917  

    Virtual:                                                              

       1B1u   -0.046375     2Ag     0.065137     2B1u    0.078080  
       1B3u    0.185104     1B2u    0.185104     3Ag     0.263787  
       1B3g    0.282596     1B2g    0.282596     3B1u    0.337377  
       4Ag     0.506598     4B1u    0.570586     1B1g    0.751827  
       5Ag     0.751827     2B2u    0.788238     2B3u    0.788238  
       6Ag     0.873021     1Au     0.899876     5B1u    0.899876  
       6B1u    0.952910     3B2u    1.007326     3B3u    1.007326  
       2B2g    1.015899     2B3g    1.015899     3B2g    1.171065  
       3B3g    1.171065     7Ag     1.188247     7B1u    1.578421  
       8Ag     2.585966     8B1u    2.740058     2B1g    3.811001  
       9Ag     3.811001     2Au     3.855594     9B1u    3.855594  
       4B2u    3.895719     4B3u    3.895719    10Ag     3.900430  
       4B2g    3.903622     4B3g    3.903622    10B1u    3.984984  
       5B2u    4.011303     5B3u    4.011303     5B2g    4.092534  
       5B3g    4.092534    11Ag     4.148206    11B1u    4.535344  

    Final Occupation by Irrep:
             Ag   B1g   B2g   B3g    Au   B1u   B2u   B3u 
    DOCC [     1,    0,    0,    0,    0,    0,    0,    0 ]
    NA   [     1,    0,    0,    0,    0,    0,    0,    0 ]
    NB   [     1,    0,    0,    0,    0,    0,    0,    0 ]

  @RHF Final Energy:    -0.92610773707865

   => Energetics <=

    Nuclear Repulsion Energy =              0.2645886053349999
    One-Electron Energy =                  -1.6035593692276957
    Two-Electron Energy =                   0.4128630268140434
    Total Energy =                         -0.9261077370786523

Computation Completed


Properties will be evaluated at   0.000000,   0.000000,   0.000000 [a0]

Properties computed using the SCF density matrix


 Multipole Moments:

 ------------------------------------------------------------------------------------
     Multipole            Electronic (a.u.)      Nuclear  (a.u.)        Total (a.u.)
 ------------------------------------------------------------------------------------

 L = 1.  Multiply by 2.5417464519 to convert [e a0] to [Debye]
 Dipole X            :          0.0000000            0.0000000            0.0000000
 Dipole Y            :          0.0000000            0.0000000            0.0000000
 Dipole Z            :          0.0000000            0.0000000            0.0000000
 Magnitude           :                                                    0.0000000

 ------------------------------------------------------------------------------------

*** tstop() called on clydes-mbp.haverford.edu at Mon Mar 25 16:38:06 2024
Module time:
	user time   =       0.17 seconds =       0.00 minutes
	system time =       0.01 seconds =       0.00 minutes
	total time  =          0 seconds =       0.00 minutes
Total time:
	user time   =      34.87 seconds =       0.58 minutes
	system time =      31.86 seconds =       0.53 minutes
	total time  =         74 seconds =       1.23 minutes
 MINTS: Wrapper to libmints.
   by Justin Turney

   Calculation information:
      Number of threads:                 1
      Number of atoms:                   2
      Number of AO shells:              18
      Number of SO shells:               9
      Number of primitives:             22
      Number of atomic orbitals:        50
      Number of basis functions:        46

      Number of irreps:                  8
      Integral cutoff                 1.00e-12
      Number of functions per irrep: [  11    2    5    5    2   11    5    5 ]

 OEINTS: Overlap, kinetic, potential, dipole, and quadrupole integrals
         stored in file 35.

      Computing two-electron integrals...done
      Computed 69839 non-zero two-electron integrals.
        Stored in file 33.


*** tstart() called on clydes-mbp.haverford.edu
*** at Mon Mar 25 16:38:06 2024


	Wfn Parameters:
	--------------------
	Wavefunction         = CCSD_T
	Number of irreps     = 8
	Number of MOs        = 46
	Number of active MOs = 46
	AO-Basis             = NONE
	Semicanonical        = false
	Reference            = RHF
	Print Level          = 1

	IRREP	# MOs	# FZDC	# DOCC	# SOCC	# VIRT	# FZVR
	-----	-----	------	------	------	------	------
	 Ag	   11	    0	    1	    0	    10	    0
	 B1g	   2	    0	    0	    0	    2	    0
	 B2g	   5	    0	    0	    0	    5	    0
	 B3g	   5	    0	    0	    0	    5	    0
	 Au	   2	    0	    0	    0	    2	    0
	 B1u	   11	    0	    0	    0	    11	    0
	 B2u	   5	    0	    0	    0	    5	    0
	 B3u	   5	    0	    0	    0	    5	    0
	Transforming integrals...
	IWL integrals will be deleted.
	(OO|OO)...
	Presorting SO-basis two-electron integrals.
	Sorting File: SO Ints (nn|nn) nbuckets = 1
	Constructing frozen core operators
	Starting first half-transformation.
	Sorting half-transformed integrals.
	First half integral transformation complete.
	Starting second half-transformation.
	Two-electron integral transformation complete.
	(OO|OV)...
	Starting second half-transformation.
	Two-electron integral transformation complete.
	(OO|VV)...
	Starting second half-transformation.
	Two-electron integral transformation complete.
	(OV|OO)...
	Starting first half-transformation.
	Sorting half-transformed integrals.
	First half integral transformation complete.
	Starting second half-transformation.
	Two-electron integral transformation complete.
	(OV|OV)...
	Starting second half-transformation.
	Two-electron integral transformation complete.
	(OV|VV)...
	Starting second half-transformation.
	Two-electron integral transformation complete.
	(VV|OO)...
	Starting first half-transformation.
	Sorting half-transformed integrals.
	First half integral transformation complete.
	Starting second half-transformation.
	Two-electron integral transformation complete.
	(VV|OV)...
	Starting second half-transformation.
	Two-electron integral transformation complete.
	(VV|VV)...
	Starting second half-transformation.
	Two-electron integral transformation complete.
	Frozen core energy     =      0.00000000000000

	Size of irrep 0 of <ab|cd> integrals:      0.108 (MW) /      0.866 (MB)
	Size of irrep 1 of <ab|cd> integrals:      0.034 (MW) /      0.271 (MB)
	Size of irrep 2 of <ab|cd> integrals:      0.062 (MW) /      0.500 (MB)
	Size of irrep 3 of <ab|cd> integrals:      0.062 (MW) /      0.500 (MB)
	Size of irrep 4 of <ab|cd> integrals:      0.034 (MW) /      0.271 (MB)
	Size of irrep 5 of <ab|cd> integrals:      0.108 (MW) /      0.861 (MB)
	Size of irrep 6 of <ab|cd> integrals:      0.062 (MW) /      0.500 (MB)
	Size of irrep 7 of <ab|cd> integrals:      0.062 (MW) /      0.500 (MB)
	Total:                                     0.534 (MW) /      4.268 (MB)

	Size of irrep 0 of <ia|bc> integrals:      0.003 (MW) /      0.026 (MB)
	Size of irrep 1 of <ia|bc> integrals:      0.000 (MW) /      0.003 (MB)
	Size of irrep 2 of <ia|bc> integrals:      0.001 (MW) /      0.010 (MB)
	Size of irrep 3 of <ia|bc> integrals:      0.001 (MW) /      0.010 (MB)
	Size of irrep 4 of <ia|bc> integrals:      0.000 (MW) /      0.003 (MB)
	Size of irrep 5 of <ia|bc> integrals:      0.004 (MW) /      0.029 (MB)
	Size of irrep 6 of <ia|bc> integrals:      0.001 (MW) /      0.010 (MB)
	Size of irrep 7 of <ia|bc> integrals:      0.001 (MW) /      0.010 (MB)
	Total:                                     0.013 (MW) /      0.101 (MB)

	Size of irrep 0 of tijab amplitudes:       0.000 (MW) /      0.003 (MB)
	Size of irrep 1 of tijab amplitudes:       0.000 (MW) /      0.000 (MB)
	Size of irrep 2 of tijab amplitudes:       0.000 (MW) /      0.000 (MB)
	Size of irrep 3 of tijab amplitudes:       0.000 (MW) /      0.000 (MB)
	Size of irrep 4 of tijab amplitudes:       0.000 (MW) /      0.000 (MB)
	Size of irrep 5 of tijab amplitudes:       0.000 (MW) /      0.000 (MB)
	Size of irrep 6 of tijab amplitudes:       0.000 (MW) /      0.000 (MB)
	Size of irrep 7 of tijab amplitudes:       0.000 (MW) /      0.000 (MB)
	Total:                                     0.000 (MW) /      0.003 (MB)

	Nuclear Rep. energy          =      0.26458860533500
	SCF energy                   =     -0.92610773707865
	One-electron energy          =     -1.60355937683016
	Two-electron energy          =      0.41286303441651
	Reference energy             =     -0.92610773707865

*** tstop() called on clydes-mbp.haverford.edu at Mon Mar 25 16:38:06 2024
Module time:
	user time   =       0.05 seconds =       0.00 minutes
	system time =       0.09 seconds =       0.00 minutes
	total time  =          0 seconds =       0.00 minutes
Total time:
	user time   =      34.95 seconds =       0.58 minutes
	system time =      31.96 seconds =       0.53 minutes
	total time  =         74 seconds =       1.23 minutes
            **************************
            *                        *
            *        CCENERGY        *
            *                        *
            **************************

    Nuclear Rep. energy (wfn)     =    0.264588605335000
    SCF energy          (wfn)     =   -0.926107737078652
    Reference energy    (file100) =   -0.926107737078653

    Input parameters:
    -----------------
    Wave function   =     CCSD_T
    Reference wfn   =     RHF
    Brueckner       =     No
    Memory (Mbytes) =     524.3
    Maxiter         =     50
    R_Convergence   =     1.0e-07
    E_Convergence   =     1.0e-06
    Restart         =     Yes
    DIIS            =     Yes
    AO Basis        =     NONE
    ABCD            =     NEW
    Cache Level     =     2
    Cache Type      =     LOW
    Print Level     =     1
    Num. of threads =     1
    # Amps to Print =     10
    Print MP2 Amps? =     No
    Analyze T2 Amps =     No
    Print Pair Ener =     No
    Local CC        =     No
    SCS-MP2         =     False
    SCSN-MP2        =     False
    SCS-CCSD        =     False

    Using old T1 amplitudes.
    Using old T2 amplitudes.

MP2 correlation energy -0.0529421775044800
                Solving CC Amplitude Equations
                ------------------------------
  Iter             Energy              RMS        T1Diag      D1Diag    New D1Diag    D2Diag
  ----     ---------------------    ---------   ----------  ----------  ----------   --------
     0        -0.094341697487041    0.000e+00    0.060296    0.085272    0.085272    0.508812
     1        -0.094834275950345    4.917e-03    0.060779    0.085954    0.085954    0.512475
     2        -0.095170337433340    2.175e-03    0.061246    0.086615    0.086615    0.515248
     3        -0.095325603782491    6.551e-04    0.061431    0.086877    0.086877    0.516383
     4        -0.095352572161221    1.412e-04    0.061488    0.086958    0.086958    0.516568
     5        -0.095361460187128    3.469e-05    0.061503    0.086978    0.086978    0.516617
     6        -0.095360905457397    5.006e-06    0.061504    0.086980    0.086980    0.516613
     7        -0.095361187593000    1.194e-06    0.061505    0.086981    0.086981    0.516614
     8        -0.095361163496477    2.506e-07    0.061505    0.086981    0.086981    0.516614
     9        -0.095361166756143    3.574e-08    0.061505    0.086981    0.086981    0.516614

    Iterations converged.


    Largest TIA Amplitudes:
              0   2         0.0633938391
              0   0         0.0438950503
              0   1         0.0278679085
              0   4         0.0254497151
              0   6         0.0109817136
              0   5         0.0086469364
              0   8         0.0005624606
              0   9         0.0002596396

    Largest TIjAb Amplitudes:
      0   0  24  24        -0.4433059022
      0   0  24  25        -0.1377085802
      0   0  25  24        -0.1377085802
      0   0  24  26        -0.0805618023
      0   0  26  24        -0.0805618023
      0   0  24  27        -0.0711368891
      0   0  27  24        -0.0711368891
      0   0  25  25        -0.0429911340
      0   0  25  26        -0.0254763073
      0   0  26  25        -0.0254763073

    SCF energy       (wfn)                    =   -0.926107737078652
    Reference energy (file100)                =   -0.926107737078653

    Opposite-spin MP2 correlation energy      =   -0.052942177504480
    Same-spin MP2 correlation energy          =    0.000000000000000
    Singles MP2 correlation energy            =   -0.000000000000000
    MP2 correlation energy                    =   -0.052942177504480
      * MP2 total energy                      =   -0.979049914583133

    Opposite-spin CCSD correlation energy     =   -0.095361166756143
    Same-spin CCSD correlation energy         =    0.000000000000000
    Singles CCSD correlation energy           =    0.000000000000000
    CCSD correlation energy                   =   -0.095361166756143
      * CCSD total energy                     =   -1.021468903834796

            **************************
            *                        *
            *        CCTRIPLES       *
            *                        *
            **************************


    Wave function   =    CCSD_T
    Reference wfn   =      RHF

    Nuclear Rep. energy (wfn)                =    0.264588605335000
    SCF energy          (wfn)                =   -0.926107737078652
    Reference energy    (file100)            =   -0.926107737078653
    CCSD energy         (file100)            =   -0.095361166756143
    Total CCSD energy   (file100)            =   -1.021468903834796

    Number of ijk index combinations:                1
    Memory available in words               :        65536000
    Approx. words needed per explicit thread:            5324
    Number of threads for explicit ijk threading:    1

    MKL num_threads set to 1 for explicit threading.

    (T) energy                                =    0.000000000000000
      * CCSD(T) total energy                  =   -1.021468903834796

