Process 0 of 1 is on skystd40.palmetto.clemson.edu - thread support 0
initial socket setup ...start
initial socket setup ...done 
now start server 0 ... 
                  Welcome to Q-Chem
     A Quantum Leap Into The Future Of Chemistry


 Q-Chem 5.4, Q-Chem, Inc., Pleasanton, CA (2021)

 License issued to: SRG Carol Parish, MERCURY Consortium

 E. Epifanovsky,  A. T. B. Gilbert,  Xintian Feng,  Joonho Lee,  Yuezhi Mao,  
 N. Mardirossian,  P. Pokhilko,  A. White,  M. Wormit,  M. P. Coons,  
 A. L. Dempwolff,  Zhengting Gan,  D. Hait,  P. R. Horn,  L. D. Jacobson,  
 I. Kaliman,  J. Kussmann,  A. W. Lange,  Ka Un Lao,  D. S. Levine,  Jie Liu,  
 S. C. McKenzie,  A. F. Morrison,  K. Nanda,  F. Plasser,  D. R. Rehn,  
 M. L. Vidal,  Zhi-Qiang You,  Ying Zhu,  B. Alam,  B. Albrecht,  
 A. Aldossary,  E. Alguire,  J. H. Andersen,  D. Barton,  K. Begam,  A. Behn,  
 Y. A. Bernard,  E. J. Berquist,  H. Burton,  A. Carreras,  K. Carter-Fenk,  
 R. Chakraborty,  A. D. Chien,  K. D. Closser,  V. Cofer-Shabica,  
 S. Dasgupta,  Jia Deng,  M. de Wergifosse,  M. Diedenhofen,  Hainam Do,  
 S. Ehlert,  Po-Tung Fang,  S. Fatehi,  Qingguo Feng,  J. Gayvert,  
 Qinghui Ge,  G. Gidofalvi,  M. Goldey,  J. Gomes,  C. Gonzalez-Espinoza,  
 S. Gulania,  A. Gunina,  M. W. D. Hanson-Heine,  P. H. P. Harbach,  
 A. W. Hauser,  M. F. Herbst,  M. Hernandez Vera,  M. Hodecker,  
 Z. C. Holden,  S. Houck,  Xunkun Huang,  Kerwin Hui,  B. C. Huynh,  
 M. Ivanov,  Hyunjun Ji,  Hanjie Jiang,  B. Kaduk,  S. Kaehler,  
 K. Khistyaev,  Jaehoon Kim,  P. Klunzinger,  Z. Koczor-Benda,  
 Joong Hoon Koh,  D. Kosenkov,  L. Koulias,  T. Kowalczyk,  C. M. Krauter,  
 K. Kue,  A. Kunitsa,  T. Kus,  A. Landau,  K. V. Lawler,  D. Lefrancois,  
 S. Lehtola,  Rain Li,  Yi-Pei Li,  Jiashu Liang,  M. Liebenthal,  
 Hung-Hsuan Lin,  You-Sheng Lin,  Fenglai Liu,  Kuan-Yu Liu,  
 M. Loipersberger,  A. Luenser,  A. Manjanath,  P. Manohar,  E. Mansoor,  
 S. F. Manzer,  Shan-Ping Mao,  A. V. Marenich,  T. Markovich,  S. Mason,  
 S. A. Maurer,  P. F. McLaughlin,  M. F. S. J. Menger,  J.-M. Mewes,  
 S. A. Mewes,  P. Morgante,  J. W. Mullinax,  T. S. Nguyen-Beck,  
 K. J. Oosterbaan,  G. Paran,  Alexander C. Paul,  Suranjan K. Paul,  
 F. Pavosevic,  Zheng Pei,  S. Prager,  E. I. Proynov,  E. Ramos,  B. Rana,  
 A. E. Rask,  A. Rettig,  R. M. Richard,  F. Rob,  E. Rossomme,  T. Scheele,  
 M. Scheurer,  M. Schneider,  N. Sergueev,  S. M. Sharada,  W. Skomorowski,  
 D. W. Small,  C. J. Stein,  Yu-Chuan Su,  E. J. Sundstrom,  Zhen Tao,  
 J. Thirman,  T. Tsuchimochi,  N. M. Tubman,  S. P. Veccham,  O. Vydrov,  
 J. Wenzel,  J. Witte,  A. Yamada,  Kun Yao,  S. Yeganeh,  S. R. Yost,  
 A. Zech,  Igor Ying Zhang,  Xing Zhang,  Yu Zhang,  D. Zuev,  
 A. Aspuru-Guzik,  A. T. Bell,  N. A. Besley,  K. B. Bravaya,  B. R. Brooks,  
 D. Casanova,  Jeng-Da Chai,  S. Coriani,  C. J. Cramer,  
 A. E. DePrince, III,  R. A. DiStasio Jr.,  A. Dreuw,  B. D. Dunietz,  
 T. R. Furlani,  W. A. Goddard III,  S. Grimme,  S. Hammes-Schiffer,  
 T. Head-Gordon,  W. J. Hehre,  Chao-Ping Hsu,  T.-C. Jagau,  Yousung Jung,  
 A. Klamt,  Jing Kong,  D. S. Lambrecht,  WanZhen Liang,  N. J. Mayhall,  
 C. W. McCurdy,  J. B. Neaton,  C. Ochsenfeld,  J. A. Parkhill,  R. Peverati,  
 V. A. Rassolov,  Yihan Shao,  L. V. Slipchenko,  T. Stauch,  R. P. Steele,  
 J. E. Subotnik,  A. J. W. Thom,  A. Tkatchenko,  D. G. Truhlar,  
 T. Van Voorhis,  T. A. Wesolowski,  K. B. Whaley,  H. L. Woodcock III,  
 P. M. Zimmerman,  S. Faraji,  P. M. W. Gill,  M. Head-Gordon,  
 J. M. Herbert,  A. I. Krylov

 Contributors to earlier versions of Q-Chem not listed above: 
 R. D. Adamson,  B. Austin,  R. Baer,  J. Baker,  G. J. O. Beran,  
 K. Brandhorst,  S. T. Brown,  E. F. C. Byrd,  A. K. Chakraborty,  
 G. K. L. Chan,  Chun-Min Chang,  Yunqing Chen,  C.-L. Cheng,  
 Siu Hung Chien,  D. M. Chipman,  D. L. Crittenden,  H. Dachsel,  
 R. J. Doerksen,  A. D. Dutoi,  R. G. Edgar,  J. Fosso-Tande,  
 L. Fusti-Molnar,  D. Ghosh,  A. Ghysels,  A. Golubeva-Zadorozhnaya,  
 J. Gonthier,  M. S. Gordon,  S. R. Gwaltney,  G. Hawkins,  J. E. Herr,  
 A. Heyden,  S. Hirata,  E. G. Hohenstein,  G. Kedziora,  F. J. Keil,  
 C. Kelley,  Jihan Kim,  R. A. King,  R. Z. Khaliullin,  P. P. Korambath,  
 W. Kurlancheek,  A. Laurent,  A. M. Lee,  M. S. Lee,  S. V. Levchenko,  
 Ching Yeh Lin,  D. Liotard,  E. Livshits,  R. C. Lochan,  I. Lotan,  
 L. A. Martinez-Martinez,  P. E. Maslen,  N. Nair,  D. P. O'Neill,  
 D. Neuhauser,  E. Neuscamman,  C. M. Oana,  R. Olivares-Amaya,  R. Olson,  
 T. M. Perrine,  B. Peters,  P. A. Pieniazek,  A. Prociuk,  Y. M. Rhee,  
 J. Ritchie,  M. A. Rohrdanz,  E. Rosta,  N. J. Russ,  H. F. Schaefer III,  
 M. W. Schmidt,  N. E. Schultz,  S. Sharma,  N. Shenvi,  C. D. Sherrill,  
 A. C. Simmonett,  A. Sodt,  T. Stein,  D. Stuck,  K. S. Thanthiriwatte,  
 V. Vanovschi,  L. Vogt,  Tao Wang,  A. Warshel,  M. A. Watson,  
 C. F. Williams,  Q. Wu,  X. Xu,  Jun Yang,  W. Zhang,  Yan Zhao

 Please cite Q-Chem as follows:
 Y. Shao et al., Mol. Phys. 113, 184-215 (2015)
 DOI: 10.1080/00268976.2014.952696

 Q-Chem 5.4.0 for Intel X86 EM64T Linux

 Parts of Q-Chem use Armadillo 9.800.1 (Horizon Scraper).
 http://arma.sourceforge.net/

 Q-Chem begins on Tue Dec  5 18:07:15 2023  

 Host: 
0

     Scratch files written to /local_scratch/pbs.1652979[0].pbs02/pyqchem_1059338//
 May1621 |scratch|qcdevops|jenkins|workspace|build_RNUM 6351   
 Parallel job on  1  processors
 Processing $rem in /software/commercial/MERCURY/QChem/5.4.0/config/preferences:
 Processing $rem in /home/jeanettepatel/.qchemrc:

 Checking the input file for inconsistencies... 	...done.

--------------------------------------------------------------
User input:
--------------------------------------------------------------
$molecule
0 1
C	        3.2325150000        -0.3085370000         0.0411780000
C	        2.1441140000         0.6056920000         0.2880930000
H	        1.2697830000         1.3237920000         0.4771520000
C	        4.2298570000        -1.1423380000        -0.1801670000
H	        4.2428250000        -1.9442470000         0.5637110000
H	        5.1919520000        -0.6240800000        -0.1317760000
H	        4.1455940000        -1.6025120000        -1.1689890000
H	       -0.3820270000         3.1368500000        -0.1256620000
O	       -0.4860440000         2.2923080000         0.3231290000
C	       -1.2836810000         1.4224860000        -0.4964050000
C	       -1.6050370000         0.1703110000         0.3047000000
C	       -2.4413690000        -0.8406240000        -0.4886700000
C	       -2.7622640000        -2.1040760000         0.3161280000
H	       -0.7325990000         1.1563360000        -1.4087710000
H	       -2.2103900000         1.9298260000        -0.7950950000
H	       -0.6658430000        -0.2952270000         0.6220900000
H	       -2.1363580000         0.4645300000         1.2168550000
H	       -1.9043390000        -1.1186390000        -1.4036860000
H	       -3.3765290000        -0.3681970000        -0.8142640000
H	       -1.8460430000        -2.6159220000         0.6261390000
H	       -3.3278750000        -1.8621560000         1.2213900000
H	       -3.3571800000        -2.8101730000        -0.2696650000
$end
$rem
jobtype polarizability
method tpss
basis 6-311++g**
thresh 14
scf_convergence 9
scf_algorithm diis
max_scf_cycles 200
gui 2
set_iter 30
RPA False
mem_total 40000
mem_static 2000
n_frozen_virtual 0
mom_start False
skip_scfman False
scf_guess_mix False
symmetry False
sym_ignore True
sym_tol 5
dft_d d3
xc_smart_grid True
xc_grid 000099000590
$end

--------------------------------------------------------------
 Adding empirical dispersion correction 
 ----------------------------------------------------------------
 Doing -D3(OP) with
 s6  =   1.00000
 s8  =   0.51581
 a1  =   0.57500
 a2  =   3.00000
 pow =   14.00000
 -D3 energy without 3body term =     -0.0094277901 hartrees
 ----------------------------------------------------------------
             Standard Nuclear Orientation (Angstroms)
    I     Atom           X                Y                Z
 ----------------------------------------------------------------
    1      C       3.2325150000    -0.3085370000     0.0411780000
    2      C       2.1441140000     0.6056920000     0.2880930000
    3      H       1.2697830000     1.3237920000     0.4771520000
    4      C       4.2298570000    -1.1423380000    -0.1801670000
    5      H       4.2428250000    -1.9442470000     0.5637110000
    6      H       5.1919520000    -0.6240800000    -0.1317760000
    7      H       4.1455940000    -1.6025120000    -1.1689890000
    8      H      -0.3820270000     3.1368500000    -0.1256620000
    9      O      -0.4860440000     2.2923080000     0.3231290000
   10      C      -1.2836810000     1.4224860000    -0.4964050000
   11      C      -1.6050370000     0.1703110000     0.3047000000
   12      C      -2.4413690000    -0.8406240000    -0.4886700000
   13      C      -2.7622640000    -2.1040760000     0.3161280000
   14      H      -0.7325990000     1.1563360000    -1.4087710000
   15      H      -2.2103900000     1.9298260000    -0.7950950000
   16      H      -0.6658430000    -0.2952270000     0.6220900000
   17      H      -2.1363580000     0.4645300000     1.2168550000
   18      H      -1.9043390000    -1.1186390000    -1.4036860000
   19      H      -3.3765290000    -0.3681970000    -0.8142640000
   20      H      -1.8460430000    -2.6159220000     0.6261390000
   21      H      -3.3278750000    -1.8621560000     1.2213900000
   22      H      -3.3571800000    -2.8101730000    -0.2696650000
 ----------------------------------------------------------------
 Nuclear Repulsion Energy =         337.80021283 hartrees
 There are       32 alpha and       32 beta electrons
 Requested basis set is 6-311++G(d,p)
 There are 118 shells and 274 basis functions

 Total QAlloc Memory Limit  40000 MB
 Mega-Array Size      1956 MB
 MEM_STATIC part      2000 MB
 A cutoff of  1.0D-14 yielded   6024 shell pairs
 There are     32132 function pairs (     33917 Cartesian)
 Smallest overlap matrix eigenvalue = 1.42E-06

 Scale SEOQF with 1.000000e-02/1.000000e-01/1.000000e-01

 Standard Electronic Orientation quadrupole field applied
 Nucleus-field energy     =     0.0000000097 hartrees
 Guess from superposition of atomic densities
 Warning:  Energy on first SCF cycle will be non-variational
 SAD guess density has 64.000000 electrons

 -----------------------------------------------------------------------
  General SCF calculation program by
  Eric Jon Sundstrom, Paul Horn, Yuezhi Mao, Dmitri Zuev, Alec White,
  David Stuck, Shaama M.S., Shane Yost, Joonho Lee, David Small,
  Daniel Levine, Susi Lehtola, Hugh Burton, Evgeny Epifanovsky,
  Bang C. Huynh
 -----------------------------------------------------------------------
 Exchange:  TPSS      Correlation:  TPSS
 Using Euler-Maclaurin-Lebedev (99,590) quadrature formula
 Dispersion:   Grimme D3
 using 12 threads for integral computing
 -------------------------------------------------------
 OpenMP Integral computing Module                
 Release: version 1.0, May 2013, Q-Chem Inc. Pittsburgh 
 -------------------------------------------------------
 A restricted SCF calculation will be
 performed using DIIS
 SCF converges when DIIS error is below 1.0e-09
 ---------------------------------------
  Cycle       Energy         DIIS error
 ---------------------------------------
    1    -351.1055091959      3.32e-02  
    2    -350.1327978343      5.32e-03  
    3    -349.8692643631      7.48e-03  
    4    -350.3094618996      3.06e-03  
    5    -350.3937147392      1.15e-03  
    6    -350.4056252351      4.01e-04  
    7    -350.4068198529      8.20e-05  
    8    -350.4068686743      2.81e-05  
    9    -350.4068756210      5.12e-06  
   10    -350.4068758487      1.76e-06  
   11    -350.4068758761      3.96e-07  
   12    -350.4068758775      8.01e-08  
   13    -350.4068758775      1.81e-08  
   14    -350.4068758775      7.38e-09  
   15    -350.4068758776      1.12e-09  
   16    -350.4068758776      2.88e-10  Convergence criterion met
 ---------------------------------------
 SCF time:   CPU 557.51s  wall 48.00s 
 SCF   energy in the final basis set =     -350.4068758776
 Total energy in the final basis set =     -350.4068758776
 
 --------------------------------------------------------------
 
                    Orbital Energies (a.u.)
 --------------------------------------------------------------
 
 Alpha MOs
 -- Occupied --
-18.8932 -10.0353 -10.0120 -10.0076 -10.0024  -9.9842  -9.9792  -9.9744
 -0.9662  -0.7474  -0.7397  -0.6702  -0.5983  -0.5816  -0.5369  -0.4822
 -0.4733  -0.4422  -0.4077  -0.4076  -0.4074  -0.3940  -0.3900  -0.3639
 -0.3318  -0.3235  -0.3020  -0.2951  -0.2923  -0.2454  -0.1960  -0.1959
 -- Virtual --
 -0.0273  -0.0265  -0.0172  -0.0098  -0.0045   0.0082   0.0140   0.0251
  0.0333   0.0368   0.0392   0.0453   0.0510   0.0578   0.0613   0.0698
  0.0720   0.0823   0.0846   0.0885   0.0940   0.0950   0.1037   0.1062
  0.1112   0.1197   0.1250   0.1291   0.1319   0.1350   0.1416   0.1434
  0.1472   0.1530   0.1547   0.1591   0.1610   0.1647   0.1697   0.1722
  0.1726   0.1780   0.1821   0.1858   0.1972   0.1974   0.2005   0.2078
  0.2124   0.2154   0.2217   0.2275   0.2331   0.2450   0.2644   0.2664
  0.2804   0.2876   0.2926   0.2967   0.3231   0.3348   0.3384   0.3535
  0.3550   0.3663   0.4156   0.4260   0.4288   0.4373   0.4393   0.4474
  0.4686   0.4754   0.4977   0.5141   0.5348   0.5517   0.5827   0.5877
  0.6034   0.6080   0.6106   0.6148   0.6224   0.6288   0.6383   0.6494
  0.6515   0.6552   0.6647   0.6720   0.6828   0.6875   0.6937   0.7006
  0.7194   0.7334   0.7399   0.7610   0.7683   0.7794   0.8445   0.8690
  0.8775   0.9204   0.9465   0.9524   0.9647   0.9777   0.9851   0.9992
  1.0342   1.0759   1.1215   1.1345   1.1988   1.2025   1.2041   1.2125
  1.2415   1.2558   1.2606   1.2955   1.3069   1.3802   1.4169   1.4238
  1.4291   1.4499   1.4543   1.4663   1.4937   1.5284   1.5368   1.5503
  1.5555   1.5620   1.5682   1.5751   1.5849   1.5938   1.5992   1.6055
  1.6474   1.6630   1.6698   1.6942   1.7058   1.7286   1.7341   1.7700
  1.7730   1.8090   1.8200   1.8406   1.8457   1.8853   1.9212   1.9621
  2.0245   2.0358   2.0486   2.0580   2.0694   2.1111   2.1235   2.1495
  2.1828   2.1916   2.2081   2.2834   2.3420   2.3472   2.3794   2.3883
  2.4018   2.4082   2.4677   2.4872   2.5067   2.5151   2.5350   2.5414
  2.5656   2.5766   2.5863   2.5881   2.6078   2.6288   2.6379   2.6562
  2.6785   2.6969   2.7408   2.7488   2.7801   2.8181   2.8371   2.8461
  2.8517   2.8618   2.8812   2.9009   2.9273   2.9348   2.9734   2.9965
  3.0094   3.0388   3.0821   3.1663   3.1794   3.2497   3.2794   3.3433
  3.4096   3.5301   3.7950   3.8096   3.8285   3.8508   3.8554   3.8562
  3.8643   3.8783   3.9660   3.9981   4.0936   4.1996   4.3180   5.0867
  5.3841   5.6100  23.5508  23.8337  23.8693  23.9138  23.9347  23.9781
 24.5241  49.9370
 --------------------------------------------------------------
 
          Ground-State Mulliken Net Atomic Charges

     Atom                 Charge (a.u.)
  ----------------------------------------
      1 C                     0.691286
      2 C                    -1.684177
      3 H                     0.325739
      4 C                     0.114057
      5 H                     0.189475
      6 H                     0.190926
      7 H                     0.187077
      8 H                     0.263784
      9 O                    -0.267801
     10 C                    -0.586400
     11 C                    -0.074210
     12 C                    -0.097414
     13 C                    -0.716464
     14 H                     0.189764
     15 H                     0.168108
     16 H                     0.115231
     17 H                     0.186089
     18 H                     0.154623
     19 H                     0.147579
     20 H                     0.170203
     21 H                     0.161926
     22 H                     0.170597
  ----------------------------------------
  Sum of atomic charges =     0.000000

 -----------------------------------------------------------------
                    Cartesian Multipole Moments
 -----------------------------------------------------------------
    Charge (ESU x 10^10)
                 0.0000
    Dipole Moment (Debye)
         X      -0.5261      Y      -0.2023      Z      -1.6347
       Tot       1.7292
    Quadrupole Moments (Debye-Ang)
        XX     -45.1934     XY      -6.6589     YY     -46.5987
        XZ      -0.6710     YZ      -2.7355     ZZ     -54.6985
    Octopole Moments (Debye-Ang^2)
       XXX      32.0679    XXY     -19.9701    XYY      -0.4807
       YYY      31.8363    XXZ      -5.6487    XYZ       2.3433
       YYZ      -9.1804    XZZ      -4.9982    YZZ      -0.0762
       ZZZ      -2.1180
    Hexadecapole Moments (Debye-Ang^3)
      XXXX   -1932.1646   XXXY    -107.5616   XXYY    -466.9104
      XYYY     -30.4380   YYYY    -599.5483   XXXZ     -21.7047
      XXYZ       2.5795   XYYZ      10.1433   YYYZ     -18.4013
      XXZZ    -392.3358   XYZZ      -8.7383   YYZZ    -143.0980
      XZZZ     -10.4676   YZZZ       3.1564   ZZZZ    -144.2127
 -----------------------------------------------------------------
 <<<<<<<<<<<<<<<<<<<<<<<<<<<<<<<<<<<<<<<<<<<<<<<<<<<<<<<<<<<<<<<<<<<<<<<<<<<<<
  Calculating the polarizability using responseman/libresponse.
 =============================================================================
  responseman begin
 -----------------------------------------------------------------------------
  All stored options:
   _almo_do_virt_relocalization: 0
   _almo_project_occs: 0
   _almo_project_virts: 1
   _almo_use_frgm_coefs: 0
   _do_compute_generalized_density: 1
   _do_orthogonalization_canonical: 0
   _frgm_response_idx: 0
   _mask_dg_ao: 0
   _mask_ediff_mo: 0
   _mask_form_results_mo: 0
   _mask_ints_mnov_ao: 0
   _mask_j_ao: 0
   _mask_k_ao: 0
   _mask_operator_ao: 0
   _mask_product_mo: 0
   _mask_rhsvec_mo: 0
   _mask_rspvec_guess_mo: 0
   _mask_rspvec_mo: 0
   conv: 8
   diis_start: 1
   diis_vectors: 7
   dump_ao_integrals: 0
   force_nonorthogonal: 0
   force_not_nonorthogonal: 0
   hamiltonian: rpa
   integral_engine: libint
   maxiter: 60
   memory: 2000
   order: linear
   print_level: 2
   read: 0
   rhf_as_uhf: 0
   run_type: single
   save: 0
   solver: diis
   spin: singlet
 -----------------------------------------------------------------------------
  Settings
   nocc_alph: 32
   nvirt_alph: 242
   nocc_beta: 32
   nvirt_beta: 242
   nov_alph: 7744
   nov_beta: 7744
   Orbital Hessian: RPA
   Operator spin type: singlet
   Max. iter: 60
   Convergence threshold: 10^-8
   Frequencies: 0 
 -----------------------------------------------------------------------------
  Uncoupled result (initial guess):
  [   1 :     dipole 1 ,   1 :     dipole 1 ]:   202.221432208024623378
  [   1 :     dipole 1 ,   2 :     dipole 2 ]:   -63.808548603467421856
  [   1 :     dipole 1 ,   3 :     dipole 3 ]:   -15.296239411196538072
  [   2 :     dipole 2 ,   1 :     dipole 1 ]:   -63.808548603467421856
  [   2 :     dipole 2 ,   2 :     dipole 2 ]:   179.269847768314178893
  [   2 :     dipole 2 ,   3 :     dipole 3 ]:    14.031843518494923728
  [   3 :     dipole 3 ,   1 :     dipole 1 ]:   -15.296239411196538072
  [   3 :     dipole 3 ,   2 :     dipole 2 ]:    14.031843518494923728
  [   3 :     dipole 3 ,   3 :     dipole 3 ]:   126.965470812524273470
 -----------------------------------------------------------------------------
  iteration         rmsd        enorm
 -----------------------------------------------------------------------------
  Operator: dipole / component: 1 / origin: zero (0, 0, 0)
          1 8.382050e+01 8.382050e+01
          2 4.114398e+02 4.114398e+02
          3 3.468049e+02 7.145542e+00
          4 4.841468e+00 1.526314e+00
          5 1.125720e+00 3.988022e-01
          6 2.992492e-01 5.488907e-02
          7 4.060598e-02 1.650382e-02
          8 1.097691e-02 3.494007e-03
          9 2.698715e-03 1.284970e-03
         10 8.604632e-04 2.925442e-04
         11 2.251179e-04 8.922485e-05
         12 7.631624e-05 4.562330e-05
         13 3.766417e-05 1.772328e-05
         14 1.271623e-05 2.717616e-06
         15 2.723133e-06 1.426953e-06
         16 1.004625e-06 1.769633e-07
         17 2.246398e-07 1.508111e-07
         18 1.527359e-07 5.199317e-08
         19 4.594231e-08 1.339545e-08
         20 1.037546e-08 3.549069e-09
  Operator: dipole / component: 2 / origin: zero (0, 0, 0)
          1 7.440237e+01 7.440237e+01
          2 3.633518e+02 3.633518e+02
          3 3.071561e+02 7.475927e+00
          4 5.364886e+00 1.434149e+00
          5 1.079816e+00 3.379282e-01
          6 2.500701e-01 7.434230e-02
          7 5.184825e-02 1.548974e-02
          8 1.057498e-02 3.005571e-03
          9 2.591353e-03 1.662814e-03
         10 1.136872e-03 2.835099e-04
         11 3.410949e-04 2.344028e-04
         12 2.362176e-04 7.467926e-05
         13 5.933214e-05 3.960566e-05
         14 2.956237e-05 1.034649e-05
         15 7.391329e-06 1.703771e-06
         16 1.385360e-06 9.895241e-07
         17 7.217818e-07 1.643406e-07
         18 1.164649e-07 9.245164e-08
         19 9.132435e-08 3.799869e-08
         20 2.629898e-08 3.434398e-09
  Operator: dipole / component: 3 / origin: zero (0, 0, 0)
          1 2.365079e+01 2.365079e+01
          2 1.033744e+02 1.033744e+02
          3 9.171361e+01 1.055921e+01
          4 8.354164e+00 2.448159e+00
          5 1.680195e+00 2.148306e-01
          6 1.546687e-01 6.373985e-02
          7 3.966458e-02 8.247020e-03
          8 4.796977e-03 1.866956e-03
          9 1.442307e-03 9.086526e-04
         10 6.276759e-04 2.516052e-04
         11 2.843723e-04 1.978813e-04
         12 2.130914e-04 6.633154e-05
         13 5.941540e-05 2.653307e-05
         14 2.142886e-05 8.877710e-06
         15 6.153904e-06 1.626143e-06
         16 1.083090e-06 4.226801e-07
         17 2.511554e-07 1.127612e-07
         18 8.269848e-08 5.038111e-08
         19 5.369536e-08 3.693272e-08
         20 4.014330e-08 1.895344e-08
         21 1.714632e-08 3.348422e-09
 ----------------------------------------------------------------------------- 
  Final result: 
  [   1 :     dipole 1 ,   1 :     dipole 1 ]:   119.267348431933442043
  [   1 :     dipole 1 ,   2 :     dipole 2 ]:   -15.097173890198661184
  [   1 :     dipole 1 ,   3 :     dipole 3 ]:    -3.176296051028971501
  [   2 :     dipole 2 ,   1 :     dipole 1 ]:   -15.097173891532014167
  [   2 :     dipole 2 ,   2 :     dipole 2 ]:   104.992267810164378261
  [   2 :     dipole 2 ,   3 :     dipole 3 ]:     1.929981957187818953
  [   3 :     dipole 3 ,   1 :     dipole 1 ]:    -3.176296055933040652
  [   3 :     dipole 3 ,   2 :     dipole 2 ]:     1.929981960247596273
  [   3 :     dipole 3 ,   3 :     dipole 3 ]:    80.709055708248115479
  time (s):             317.3389
 -----------------------------------------------------------------------------
  responseman end
 =============================================================================
 -----------------------------------------------------------------------------
  Polarizability tensor      [a.u.]
    119.2673484    -15.0971739     -3.1762961
    -15.0971739    104.9922678      1.9299820
     -3.1762961      1.9299820     80.7090557
  Principal components       [a.u.]
     80.4234635     95.4307477    129.1144608
  Isotropic polarizability   [a.u.]
    101.6562240
  Anisotropic polarizability [a.u.]
     43.1892599
  Polarizability tensor      [angstrom^3]
     17.6735976     -2.2371704     -0.4706785
     -2.2371704     15.5582489      0.2859938
     -0.4706785      0.2859938     11.9598481
  Principal components       [angstrom^3]
     11.9175277     14.1413778     19.1327891
  Isotropic polarizability   [angstrom^3]
     15.0638982
  Anisotropic polarizability [angstrom^3]
      6.3999880
  Orientation
      0.0671187     -0.5346293      0.8424171
     -0.0370794     -0.8450744     -0.5333614
      0.9970558      0.0045621     -0.0765440
 >>>>>>>>>>>>>>>>>>>>>>>>>>>>>>>>>>>>>>>>>>>>>>>>>>>>>>>>>>>>>>>>>>>>>>>>>>>>>
 Total job time:  366.05s(wall), 4308.10s(cpu) 
 Tue Dec  5 18:13:21 2023

        *************************************************************
        *                                                           *
        *  Thank you very much for using Q-Chem.  Have a nice day.  *
        *                                                           *
        *************************************************************


0 sent ACK to 0 
now end server 0 ... 
