Process 0 of 1 is on skystd40.palmetto.clemson.edu - thread support 0
initial socket setup ...start
initial socket setup ...done 
now start server 0 ... 
                  Welcome to Q-Chem
     A Quantum Leap Into The Future Of Chemistry


 Q-Chem 5.4, Q-Chem, Inc., Pleasanton, CA (2021)

 License issued to: SRG Carol Parish, MERCURY Consortium

 E. Epifanovsky,  A. T. B. Gilbert,  Xintian Feng,  Joonho Lee,  Yuezhi Mao,  
 N. Mardirossian,  P. Pokhilko,  A. White,  M. Wormit,  M. P. Coons,  
 A. L. Dempwolff,  Zhengting Gan,  D. Hait,  P. R. Horn,  L. D. Jacobson,  
 I. Kaliman,  J. Kussmann,  A. W. Lange,  Ka Un Lao,  D. S. Levine,  Jie Liu,  
 S. C. McKenzie,  A. F. Morrison,  K. Nanda,  F. Plasser,  D. R. Rehn,  
 M. L. Vidal,  Zhi-Qiang You,  Ying Zhu,  B. Alam,  B. Albrecht,  
 A. Aldossary,  E. Alguire,  J. H. Andersen,  D. Barton,  K. Begam,  A. Behn,  
 Y. A. Bernard,  E. J. Berquist,  H. Burton,  A. Carreras,  K. Carter-Fenk,  
 R. Chakraborty,  A. D. Chien,  K. D. Closser,  V. Cofer-Shabica,  
 S. Dasgupta,  Jia Deng,  M. de Wergifosse,  M. Diedenhofen,  Hainam Do,  
 S. Ehlert,  Po-Tung Fang,  S. Fatehi,  Qingguo Feng,  J. Gayvert,  
 Qinghui Ge,  G. Gidofalvi,  M. Goldey,  J. Gomes,  C. Gonzalez-Espinoza,  
 S. Gulania,  A. Gunina,  M. W. D. Hanson-Heine,  P. H. P. Harbach,  
 A. W. Hauser,  M. F. Herbst,  M. Hernandez Vera,  M. Hodecker,  
 Z. C. Holden,  S. Houck,  Xunkun Huang,  Kerwin Hui,  B. C. Huynh,  
 M. Ivanov,  Hyunjun Ji,  Hanjie Jiang,  B. Kaduk,  S. Kaehler,  
 K. Khistyaev,  Jaehoon Kim,  P. Klunzinger,  Z. Koczor-Benda,  
 Joong Hoon Koh,  D. Kosenkov,  L. Koulias,  T. Kowalczyk,  C. M. Krauter,  
 K. Kue,  A. Kunitsa,  T. Kus,  A. Landau,  K. V. Lawler,  D. Lefrancois,  
 S. Lehtola,  Rain Li,  Yi-Pei Li,  Jiashu Liang,  M. Liebenthal,  
 Hung-Hsuan Lin,  You-Sheng Lin,  Fenglai Liu,  Kuan-Yu Liu,  
 M. Loipersberger,  A. Luenser,  A. Manjanath,  P. Manohar,  E. Mansoor,  
 S. F. Manzer,  Shan-Ping Mao,  A. V. Marenich,  T. Markovich,  S. Mason,  
 S. A. Maurer,  P. F. McLaughlin,  M. F. S. J. Menger,  J.-M. Mewes,  
 S. A. Mewes,  P. Morgante,  J. W. Mullinax,  T. S. Nguyen-Beck,  
 K. J. Oosterbaan,  G. Paran,  Alexander C. Paul,  Suranjan K. Paul,  
 F. Pavosevic,  Zheng Pei,  S. Prager,  E. I. Proynov,  E. Ramos,  B. Rana,  
 A. E. Rask,  A. Rettig,  R. M. Richard,  F. Rob,  E. Rossomme,  T. Scheele,  
 M. Scheurer,  M. Schneider,  N. Sergueev,  S. M. Sharada,  W. Skomorowski,  
 D. W. Small,  C. J. Stein,  Yu-Chuan Su,  E. J. Sundstrom,  Zhen Tao,  
 J. Thirman,  T. Tsuchimochi,  N. M. Tubman,  S. P. Veccham,  O. Vydrov,  
 J. Wenzel,  J. Witte,  A. Yamada,  Kun Yao,  S. Yeganeh,  S. R. Yost,  
 A. Zech,  Igor Ying Zhang,  Xing Zhang,  Yu Zhang,  D. Zuev,  
 A. Aspuru-Guzik,  A. T. Bell,  N. A. Besley,  K. B. Bravaya,  B. R. Brooks,  
 D. Casanova,  Jeng-Da Chai,  S. Coriani,  C. J. Cramer,  
 A. E. DePrince, III,  R. A. DiStasio Jr.,  A. Dreuw,  B. D. Dunietz,  
 T. R. Furlani,  W. A. Goddard III,  S. Grimme,  S. Hammes-Schiffer,  
 T. Head-Gordon,  W. J. Hehre,  Chao-Ping Hsu,  T.-C. Jagau,  Yousung Jung,  
 A. Klamt,  Jing Kong,  D. S. Lambrecht,  WanZhen Liang,  N. J. Mayhall,  
 C. W. McCurdy,  J. B. Neaton,  C. Ochsenfeld,  J. A. Parkhill,  R. Peverati,  
 V. A. Rassolov,  Yihan Shao,  L. V. Slipchenko,  T. Stauch,  R. P. Steele,  
 J. E. Subotnik,  A. J. W. Thom,  A. Tkatchenko,  D. G. Truhlar,  
 T. Van Voorhis,  T. A. Wesolowski,  K. B. Whaley,  H. L. Woodcock III,  
 P. M. Zimmerman,  S. Faraji,  P. M. W. Gill,  M. Head-Gordon,  
 J. M. Herbert,  A. I. Krylov

 Contributors to earlier versions of Q-Chem not listed above: 
 R. D. Adamson,  B. Austin,  R. Baer,  J. Baker,  G. J. O. Beran,  
 K. Brandhorst,  S. T. Brown,  E. F. C. Byrd,  A. K. Chakraborty,  
 G. K. L. Chan,  Chun-Min Chang,  Yunqing Chen,  C.-L. Cheng,  
 Siu Hung Chien,  D. M. Chipman,  D. L. Crittenden,  H. Dachsel,  
 R. J. Doerksen,  A. D. Dutoi,  R. G. Edgar,  J. Fosso-Tande,  
 L. Fusti-Molnar,  D. Ghosh,  A. Ghysels,  A. Golubeva-Zadorozhnaya,  
 J. Gonthier,  M. S. Gordon,  S. R. Gwaltney,  G. Hawkins,  J. E. Herr,  
 A. Heyden,  S. Hirata,  E. G. Hohenstein,  G. Kedziora,  F. J. Keil,  
 C. Kelley,  Jihan Kim,  R. A. King,  R. Z. Khaliullin,  P. P. Korambath,  
 W. Kurlancheek,  A. Laurent,  A. M. Lee,  M. S. Lee,  S. V. Levchenko,  
 Ching Yeh Lin,  D. Liotard,  E. Livshits,  R. C. Lochan,  I. Lotan,  
 L. A. Martinez-Martinez,  P. E. Maslen,  N. Nair,  D. P. O'Neill,  
 D. Neuhauser,  E. Neuscamman,  C. M. Oana,  R. Olivares-Amaya,  R. Olson,  
 T. M. Perrine,  B. Peters,  P. A. Pieniazek,  A. Prociuk,  Y. M. Rhee,  
 J. Ritchie,  M. A. Rohrdanz,  E. Rosta,  N. J. Russ,  H. F. Schaefer III,  
 M. W. Schmidt,  N. E. Schultz,  S. Sharma,  N. Shenvi,  C. D. Sherrill,  
 A. C. Simmonett,  A. Sodt,  T. Stein,  D. Stuck,  K. S. Thanthiriwatte,  
 V. Vanovschi,  L. Vogt,  Tao Wang,  A. Warshel,  M. A. Watson,  
 C. F. Williams,  Q. Wu,  X. Xu,  Jun Yang,  W. Zhang,  Yan Zhao

 Please cite Q-Chem as follows:
 Y. Shao et al., Mol. Phys. 113, 184-215 (2015)
 DOI: 10.1080/00268976.2014.952696

 Q-Chem 5.4.0 for Intel X86 EM64T Linux

 Parts of Q-Chem use Armadillo 9.800.1 (Horizon Scraper).
 http://arma.sourceforge.net/

 Q-Chem begins on Tue Dec  5 17:19:27 2023  

 Host: 
0

     Scratch files written to /local_scratch/pbs.1652979[0].pbs02/pyqchem_1059338//
 May1621 |scratch|qcdevops|jenkins|workspace|build_RNUM 6351   
 Parallel job on  1  processors
 Processing $rem in /software/commercial/MERCURY/QChem/5.4.0/config/preferences:
 Processing $rem in /home/jeanettepatel/.qchemrc:

 Checking the input file for inconsistencies... 	...done.

--------------------------------------------------------------
User input:
--------------------------------------------------------------
$molecule
0 1
C	        3.0891450000        -0.1886770000         0.0729960000
C	        2.2468670000         0.5193640000         0.2647600000
H	        1.4548120000         1.1717120000         0.4370770000
C	        4.2298570000        -1.1423380000        -0.1801670000
H	        4.2428250000        -1.9442470000         0.5637110000
H	        5.1919520000        -0.6240800000        -0.1317760000
H	        4.1455940000        -1.6025120000        -1.1689890000
H	       -0.3820270000         3.1368500000        -0.1256620000
O	       -0.4860440000         2.2923080000         0.3231290000
C	       -1.2836810000         1.4224860000        -0.4964050000
C	       -1.6050370000         0.1703110000         0.3047000000
C	       -2.4413690000        -0.8406240000        -0.4886700000
C	       -2.7622640000        -2.1040760000         0.3161280000
H	       -0.7325990000         1.1563360000        -1.4087710000
H	       -2.2103900000         1.9298260000        -0.7950950000
H	       -0.6658430000        -0.2952270000         0.6220900000
H	       -2.1363580000         0.4645300000         1.2168550000
H	       -1.9043390000        -1.1186390000        -1.4036860000
H	       -3.3765290000        -0.3681970000        -0.8142640000
H	       -1.8460430000        -2.6159220000         0.6261390000
H	       -3.3278750000        -1.8621560000         1.2213900000
H	       -3.3571800000        -2.8101730000        -0.2696650000
$end
$rem
jobtype polarizability
method tpss
basis 6-311++g**
thresh 14
scf_convergence 9
scf_algorithm diis
max_scf_cycles 200
gui 2
set_iter 30
RPA False
mem_total 40000
mem_static 2000
n_frozen_virtual 0
mom_start False
skip_scfman False
scf_guess_mix False
symmetry False
sym_ignore True
sym_tol 5
dft_d d3
xc_smart_grid True
xc_grid 000099000590
$end

--------------------------------------------------------------
 Adding empirical dispersion correction 
 ----------------------------------------------------------------
 Doing -D3(OP) with
 s6  =   1.00000
 s8  =   0.51581
 a1  =   0.57500
 a2  =   3.00000
 pow =   14.00000
 -D3 energy without 3body term =     -0.0094110458 hartrees
 ----------------------------------------------------------------
             Standard Nuclear Orientation (Angstroms)
    I     Atom           X                Y                Z
 ----------------------------------------------------------------
    1      C       3.0891450000    -0.1886770000     0.0729960000
    2      C       2.2468670000     0.5193640000     0.2647600000
    3      H       1.4548120000     1.1717120000     0.4370770000
    4      C       4.2298570000    -1.1423380000    -0.1801670000
    5      H       4.2428250000    -1.9442470000     0.5637110000
    6      H       5.1919520000    -0.6240800000    -0.1317760000
    7      H       4.1455940000    -1.6025120000    -1.1689890000
    8      H      -0.3820270000     3.1368500000    -0.1256620000
    9      O      -0.4860440000     2.2923080000     0.3231290000
   10      C      -1.2836810000     1.4224860000    -0.4964050000
   11      C      -1.6050370000     0.1703110000     0.3047000000
   12      C      -2.4413690000    -0.8406240000    -0.4886700000
   13      C      -2.7622640000    -2.1040760000     0.3161280000
   14      H      -0.7325990000     1.1563360000    -1.4087710000
   15      H      -2.2103900000     1.9298260000    -0.7950950000
   16      H      -0.6658430000    -0.2952270000     0.6220900000
   17      H      -2.1363580000     0.4645300000     1.2168550000
   18      H      -1.9043390000    -1.1186390000    -1.4036860000
   19      H      -3.3765290000    -0.3681970000    -0.8142640000
   20      H      -1.8460430000    -2.6159220000     0.6261390000
   21      H      -3.3278750000    -1.8621560000     1.2213900000
   22      H      -3.3571800000    -2.8101730000    -0.2696650000
 ----------------------------------------------------------------
 Nuclear Repulsion Energy =         340.11389859 hartrees
 There are       32 alpha and       32 beta electrons
 Requested basis set is 6-311++G(d,p)
 There are 118 shells and 274 basis functions

 Total QAlloc Memory Limit  40000 MB
 Mega-Array Size      1956 MB
 MEM_STATIC part      2000 MB
 A cutoff of  1.0D-14 yielded   6027 shell pairs
 There are     32177 function pairs (     33970 Cartesian)
 Smallest overlap matrix eigenvalue = 3.85E-07
 Linear dependence detected in AO basis
 Tighter screening thresholds may be required for diffuse basis sets
 Use S2THRESH > 14 and THRESH = 14 in case of SCF convergence issues
 Number of orthogonalized atomic orbitals = 273
 Maximum deviation from orthogonality = 6.769E-12

 Scale SEOQF with 1.000000e-02/1.000000e-01/1.000000e-01

 Standard Electronic Orientation quadrupole field applied
 Nucleus-field energy     =     0.0000000096 hartrees
 Guess from superposition of atomic densities
 Warning:  Energy on first SCF cycle will be non-variational
 SAD guess density has 64.000000 electrons

 -----------------------------------------------------------------------
  General SCF calculation program by
  Eric Jon Sundstrom, Paul Horn, Yuezhi Mao, Dmitri Zuev, Alec White,
  David Stuck, Shaama M.S., Shane Yost, Joonho Lee, David Small,
  Daniel Levine, Susi Lehtola, Hugh Burton, Evgeny Epifanovsky,
  Bang C. Huynh
 -----------------------------------------------------------------------
 Exchange:  TPSS      Correlation:  TPSS
 Using Euler-Maclaurin-Lebedev (99,590) quadrature formula
 Dispersion:   Grimme D3
 using 12 threads for integral computing
 -------------------------------------------------------
 OpenMP Integral computing Module                
 Release: version 1.0, May 2013, Q-Chem Inc. Pittsburgh 
 -------------------------------------------------------
 A restricted SCF calculation will be
 performed using DIIS
 SCF converges when DIIS error is below 1.0e-09
 ---------------------------------------
  Cycle       Energy         DIIS error
 ---------------------------------------
    1    -351.2738646450      3.48e-02  
    2    -350.1424884908      5.85e-03  
    3    -349.9180724453      7.62e-03  
    4    -350.4588104112      1.16e-03  
    5    -350.4666118066      4.90e-04  
    6    -350.4682383084      1.29e-04  
    7    -350.4683672498      4.32e-05  
    8    -350.4683806228      2.02e-05  
    9    -350.4683842245      5.28e-06  
   10    -350.4683844659      1.34e-06  
   11    -350.4683844816      3.22e-07  
   12    -350.4683844825      6.69e-08  
   13    -350.4683844825      1.29e-08  
   14    -350.4683844825      5.34e-09  
   15    -350.4683844825      1.09e-09  
   16    -350.4683844825      2.80e-10  Convergence criterion met
 ---------------------------------------
 SCF time:   CPU 560.31s  wall 49.00s 
 SCF   energy in the final basis set =     -350.4683844825
 Total energy in the final basis set =     -350.4683844825
 
 --------------------------------------------------------------
 
                    Orbital Energies (a.u.)
 --------------------------------------------------------------
 
 Alpha MOs
 -- Occupied --
-18.8851 -10.0327 -10.0041  -9.9841  -9.9789  -9.9746  -9.9531  -9.9330
 -0.9588  -0.7391  -0.7153  -0.6688  -0.6485  -0.5800  -0.5362  -0.4747
 -0.4672  -0.4395  -0.3991  -0.3932  -0.3909  -0.3840  -0.3838  -0.3626
 -0.3311  -0.3206  -0.3018  -0.2947  -0.2898  -0.2438  -0.2437  -0.2386
 -- Virtual --
 -0.0172  -0.0096  -0.0038   0.0067   0.0141   0.0214   0.0285   0.0298
  0.0396   0.0442   0.0493   0.0534   0.0544   0.0622   0.0635   0.0707
  0.0758   0.0832   0.0887   0.0907   0.0966   0.0995   0.1070   0.1142
  0.1182   0.1213   0.1300   0.1311   0.1360   0.1381   0.1467   0.1471
  0.1515   0.1565   0.1602   0.1631   0.1677   0.1706   0.1719   0.1738
  0.1814   0.1853   0.1867   0.1974   0.1998   0.2039   0.2051   0.2130
  0.2188   0.2219   0.2255   0.2285   0.2386   0.2490   0.2659   0.2695
  0.2812   0.2893   0.2910   0.2991   0.3289   0.3353   0.3383   0.3550
  0.3666   0.4150   0.4289   0.4344   0.4385   0.4479   0.4669   0.4736
  0.4839   0.5017   0.5176   0.5355   0.5502   0.5567   0.5722   0.5980
  0.6126   0.6187   0.6221   0.6276   0.6306   0.6447   0.6503   0.6532
  0.6639   0.6683   0.6721   0.6851   0.6870   0.7001   0.7086   0.7194
  0.7353   0.7423   0.7526   0.7722   0.8340   0.8445   0.8722   0.9199
  0.9464   0.9589   0.9634   0.9859   0.9936   1.0106   1.0301   1.0695
  1.1239   1.1311   1.1565   1.1642   1.1967   1.2170   1.2366   1.2468
  1.2585   1.2623   1.3268   1.3323   1.3813   1.4365   1.4490   1.4634
  1.4635   1.4949   1.5050   1.5130   1.5373   1.5536   1.5594   1.5631
  1.5750   1.5907   1.5960   1.6196   1.6226   1.6249   1.6291   1.6530
  1.6662   1.6729   1.6881   1.6950   1.7127   1.7277   1.7361   1.7752
  1.8108   1.8438   1.8857   1.8920   1.8999   1.9495   2.0237   2.0310
  2.0502   2.0562   2.0712   2.0787   2.1498   2.1778   2.1826   2.1908
  2.1931   2.2098   2.2849   2.3429   2.3472   2.3882   2.4300   2.4631
  2.4645   2.4677   2.4876   2.5080   2.5184   2.5349   2.5423   2.5794
  2.5867   2.5924   2.6091   2.6540   2.6574   2.6782   2.6950   2.7106
  2.7391   2.7480   2.7494   2.7699   2.8008   2.8137   2.8355   2.8361
  2.8455   2.8865   2.9287   2.9729   3.0016   3.0159   3.0272   3.0600
  3.0852   3.0900   3.1377   3.1809   3.2543   3.2788   3.4078   3.5058
  3.5907   3.7954   3.8097   3.8203   3.8205   3.8286   3.8545   3.8650
  3.8787   3.9642   4.0930   4.1975   4.2134   4.3177   5.0777   5.3618
  5.6155  23.6671  23.8347  23.8695  23.9145  23.9303  23.9779  25.4989
 49.9412
 --------------------------------------------------------------
 
          Ground-State Mulliken Net Atomic Charges

     Atom                 Charge (a.u.)
  ----------------------------------------
      1 C                     0.437862
      2 C                    -0.247689
      3 H                     0.238583
      4 C                    -0.926801
      5 H                     0.176690
      6 H                     0.177877
      7 H                     0.174579
      8 H                     0.255509
      9 O                    -0.270561
     10 C                    -0.564356
     11 C                    -0.106240
     12 C                    -0.090002
     13 C                    -0.716949
     14 H                     0.182867
     15 H                     0.166462
     16 H                     0.124847
     17 H                     0.185511
     18 H                     0.152996
     19 H                     0.148012
     20 H                     0.167877
     21 H                     0.162447
     22 H                     0.170479
  ----------------------------------------
  Sum of atomic charges =     0.000000

 -----------------------------------------------------------------
                    Cartesian Multipole Moments
 -----------------------------------------------------------------
    Charge (ESU x 10^10)
                 0.0000
    Dipole Moment (Debye)
         X      -0.5334      Y      -0.0666      Z      -1.5465
       Tot       1.6372
    Quadrupole Moments (Debye-Ang)
        XX     -46.4941     XY      -4.7043     YY     -46.7603
        XZ      -0.2438     YZ      -2.9374     ZZ     -53.6190
    Octopole Moments (Debye-Ang^2)
       XXX      24.4433    XXY     -12.5791    XYY       1.2778
       YYY      32.0868    XXZ      -3.7521    XYZ       2.2068
       YYZ      -9.2994    XZZ      -2.3257    YZZ       0.6257
       ZZZ      -0.8764
    Hexadecapole Moments (Debye-Ang^3)
      XXXX   -1964.9596   XXXY     -82.5778   XXYY    -461.2695
      XYYY     -26.9058   YYYY    -596.0499   XXXZ     -16.3543
      XXYZ       3.4706   XYYZ      10.0992   YYYZ     -17.8638
      XXZZ    -385.1318   XYZZ      -7.1570   YYZZ    -141.2853
      XZZZ      -8.5112   YZZZ       4.2374   ZZZZ    -139.7702
 -----------------------------------------------------------------
 <<<<<<<<<<<<<<<<<<<<<<<<<<<<<<<<<<<<<<<<<<<<<<<<<<<<<<<<<<<<<<<<<<<<<<<<<<<<<
  Calculating the polarizability using responseman/libresponse.
 =============================================================================
  responseman begin
 -----------------------------------------------------------------------------
  All stored options:
   _almo_do_virt_relocalization: 0
   _almo_project_occs: 0
   _almo_project_virts: 1
   _almo_use_frgm_coefs: 0
   _do_compute_generalized_density: 1
   _do_orthogonalization_canonical: 0
   _frgm_response_idx: 0
   _mask_dg_ao: 0
   _mask_ediff_mo: 0
   _mask_form_results_mo: 0
   _mask_ints_mnov_ao: 0
   _mask_j_ao: 0
   _mask_k_ao: 0
   _mask_operator_ao: 0
   _mask_product_mo: 0
   _mask_rhsvec_mo: 0
   _mask_rspvec_guess_mo: 0
   _mask_rspvec_mo: 0
   conv: 8
   diis_start: 1
   diis_vectors: 7
   dump_ao_integrals: 0
   force_nonorthogonal: 0
   force_not_nonorthogonal: 0
   hamiltonian: rpa
   integral_engine: libint
   maxiter: 60
   memory: 2000
   order: linear
   print_level: 2
   read: 0
   rhf_as_uhf: 0
   run_type: single
   save: 0
   solver: diis
   spin: singlet
 -----------------------------------------------------------------------------
  Settings
   nocc_alph: 32
   nvirt_alph: 241
   nocc_beta: 32
   nvirt_beta: 241
   nov_alph: 7712
   nov_beta: 7712
   Orbital Hessian: RPA
   Operator spin type: singlet
   Max. iter: 60
   Convergence threshold: 10^-8
   Frequencies: 0 
 -----------------------------------------------------------------------------
  Uncoupled result (initial guess):
  [   1 :     dipole 1 ,   1 :     dipole 1 ]:   140.250125467531177037
  [   1 :     dipole 1 ,   2 :     dipole 2 ]:   -18.150037183057353474
  [   1 :     dipole 1 ,   3 :     dipole 3 ]:    -3.669448648847156935
  [   2 :     dipole 2 ,   1 :     dipole 1 ]:   -18.150037183057353474
  [   2 :     dipole 2 ,   2 :     dipole 2 ]:   135.528939504297227359
  [   2 :     dipole 2 ,   3 :     dipole 3 ]:     4.341644817880343510
  [   3 :     dipole 3 ,   1 :     dipole 1 ]:    -3.669448648847156491
  [   3 :     dipole 3 ,   2 :     dipole 2 ]:     4.341644817880341733
  [   3 :     dipole 3 ,   3 :     dipole 3 ]:   118.678472140282423197
 -----------------------------------------------------------------------------
  iteration         rmsd        enorm
 -----------------------------------------------------------------------------
  Operator: dipole / component: 1 / origin: zero (0, 0, 0)
          1 1.728277e+01 1.728277e+01
          2 3.946283e+01 3.946283e+01
          3 3.044373e+01 4.453484e+00
          4 2.895614e+00 6.564732e-01
          5 5.421332e-01 2.283108e-01
          6 1.599722e-01 3.421038e-02
          7 2.450590e-02 1.012414e-02
          8 6.841051e-03 2.111159e-03
          9 1.432952e-03 6.802933e-04
         10 4.523409e-04 1.709904e-04
         11 1.359855e-04 9.716965e-05
         12 7.934026e-05 2.994762e-05
         13 2.373873e-05 1.443463e-05
         14 1.127705e-05 3.944315e-06
         15 2.752621e-06 6.094535e-07
         16 4.500785e-07 1.982585e-07
         17 1.492791e-07 6.858415e-08
         18 4.563270e-08 1.744251e-08
         19 1.331520e-08 7.276036e-09
  Operator: dipole / component: 2 / origin: zero (0, 0, 0)
          1 1.649139e+01 1.649139e+01
          2 3.750895e+01 3.750895e+01
          3 2.906974e+01 4.090993e+00
          4 2.713792e+00 5.696450e-01
          5 4.127505e-01 1.762422e-01
          6 1.259946e-01 3.896527e-02
          7 3.108868e-02 1.171376e-02
          8 7.957383e-03 1.904667e-03
          9 1.477569e-03 8.765049e-04
         10 5.770477e-04 2.073203e-04
         11 1.881411e-04 1.488421e-04
         12 1.240673e-04 3.658567e-05
         13 3.296803e-05 2.507458e-05
         14 1.669844e-05 3.525537e-06
         15 3.171856e-06 1.982334e-06
         16 1.722933e-06 8.519451e-07
         17 5.542510e-07 9.715593e-08
         18 7.479933e-08 5.096369e-08
         19 3.937878e-08 1.994193e-08
         20 1.239042e-08 1.965986e-09
  Operator: dipole / component: 3 / origin: zero (0, 0, 0)
          1 1.170528e+01 1.170528e+01
          2 1.751143e+01 1.751143e+01
          3 1.479262e+01 5.665459e+00
          4 4.233123e+00 1.008654e+00
          5 7.646896e-01 1.643141e-01
          6 1.237180e-01 4.607113e-02
          7 2.965521e-02 6.445441e-03
          8 3.749251e-03 1.279992e-03
          9 9.379563e-04 5.862727e-04
         10 4.052486e-04 1.747802e-04
         11 1.151037e-04 4.535744e-05
         12 5.092332e-05 3.205757e-05
         13 2.950348e-05 1.571960e-05
         14 1.342442e-05 5.499323e-06
         15 3.804296e-06 9.332689e-07
         16 6.428731e-07 2.860236e-07
         17 1.619698e-07 4.897950e-08
         18 3.485320e-08 2.153674e-08
         19 1.893219e-08 1.243380e-08
         20 7.782836e-09 1.856020e-09
 ----------------------------------------------------------------------------- 
  Final result: 
  [   1 :     dipole 1 ,   1 :     dipole 1 ]:    99.379824749959837504
  [   1 :     dipole 1 ,   2 :     dipole 2 ]:    -5.540118556596203447
  [   1 :     dipole 1 ,   3 :     dipole 3 ]:    -1.460715247334936073
  [   2 :     dipole 2 ,   1 :     dipole 1 ]:    -5.540118557632959906
  [   2 :     dipole 2 ,   2 :     dipole 2 ]:    94.691651928902942359
  [   2 :     dipole 2 ,   3 :     dipole 3 ]:     0.559086811658874527
  [   3 :     dipole 3 ,   1 :     dipole 1 ]:    -1.460715242065145691
  [   3 :     dipole 3 ,   2 :     dipole 2 ]:     0.559086808756757314
  [   3 :     dipole 3 ,   3 :     dipole 3 ]:    76.818641904973134160
  time (s):             307.6286
 -----------------------------------------------------------------------------
  responseman end
 =============================================================================
 -----------------------------------------------------------------------------
  Polarizability tensor      [a.u.]
     99.3798247     -5.5401186     -1.4607152
     -5.5401186     94.6916519      0.5590868
     -1.4607152      0.5590868     76.8186419
  Principal components       [a.u.]
     76.7220178     91.0281888    103.1399120
  Isotropic polarizability   [a.u.]
     90.2967062
  Anisotropic polarizability [a.u.]
     22.9048631
  Polarizability tensor      [angstrom^3]
     14.7265706     -0.8209609     -0.2164557
     -0.8209609     14.0318551      0.0828481
     -0.2164557      0.0828481     11.3833483
  Principal components       [angstrom^3]
     11.3690301     13.4889859     15.2837581
  Isotropic polarizability   [angstrom^3]
     13.3805913
  Anisotropic polarizability [angstrom^3]
      3.3941505
  Orientation
      0.0613765     -0.5497577      0.8330662
     -0.0121293     -0.8349890     -0.5501330
      0.9980410      0.0236607     -0.0579168
 >>>>>>>>>>>>>>>>>>>>>>>>>>>>>>>>>>>>>>>>>>>>>>>>>>>>>>>>>>>>>>>>>>>>>>>>>>>>>
 Total job time:  356.60s(wall), 4196.34s(cpu) 
 Tue Dec  5 17:25:23 2023

        *************************************************************
        *                                                           *
        *  Thank you very much for using Q-Chem.  Have a nice day.  *
        *                                                           *
        *************************************************************


0 sent ACK to 0 
now end server 0 ... 
