Process 0 of 1 is on skystd40.palmetto.clemson.edu - thread support 0
initial socket setup ...start
initial socket setup ...done 
now start server 0 ... 
                  Welcome to Q-Chem
     A Quantum Leap Into The Future Of Chemistry


 Q-Chem 5.4, Q-Chem, Inc., Pleasanton, CA (2021)

 License issued to: SRG Carol Parish, MERCURY Consortium

 E. Epifanovsky,  A. T. B. Gilbert,  Xintian Feng,  Joonho Lee,  Yuezhi Mao,  
 N. Mardirossian,  P. Pokhilko,  A. White,  M. Wormit,  M. P. Coons,  
 A. L. Dempwolff,  Zhengting Gan,  D. Hait,  P. R. Horn,  L. D. Jacobson,  
 I. Kaliman,  J. Kussmann,  A. W. Lange,  Ka Un Lao,  D. S. Levine,  Jie Liu,  
 S. C. McKenzie,  A. F. Morrison,  K. Nanda,  F. Plasser,  D. R. Rehn,  
 M. L. Vidal,  Zhi-Qiang You,  Ying Zhu,  B. Alam,  B. Albrecht,  
 A. Aldossary,  E. Alguire,  J. H. Andersen,  D. Barton,  K. Begam,  A. Behn,  
 Y. A. Bernard,  E. J. Berquist,  H. Burton,  A. Carreras,  K. Carter-Fenk,  
 R. Chakraborty,  A. D. Chien,  K. D. Closser,  V. Cofer-Shabica,  
 S. Dasgupta,  Jia Deng,  M. de Wergifosse,  M. Diedenhofen,  Hainam Do,  
 S. Ehlert,  Po-Tung Fang,  S. Fatehi,  Qingguo Feng,  J. Gayvert,  
 Qinghui Ge,  G. Gidofalvi,  M. Goldey,  J. Gomes,  C. Gonzalez-Espinoza,  
 S. Gulania,  A. Gunina,  M. W. D. Hanson-Heine,  P. H. P. Harbach,  
 A. W. Hauser,  M. F. Herbst,  M. Hernandez Vera,  M. Hodecker,  
 Z. C. Holden,  S. Houck,  Xunkun Huang,  Kerwin Hui,  B. C. Huynh,  
 M. Ivanov,  Hyunjun Ji,  Hanjie Jiang,  B. Kaduk,  S. Kaehler,  
 K. Khistyaev,  Jaehoon Kim,  P. Klunzinger,  Z. Koczor-Benda,  
 Joong Hoon Koh,  D. Kosenkov,  L. Koulias,  T. Kowalczyk,  C. M. Krauter,  
 K. Kue,  A. Kunitsa,  T. Kus,  A. Landau,  K. V. Lawler,  D. Lefrancois,  
 S. Lehtola,  Rain Li,  Yi-Pei Li,  Jiashu Liang,  M. Liebenthal,  
 Hung-Hsuan Lin,  You-Sheng Lin,  Fenglai Liu,  Kuan-Yu Liu,  
 M. Loipersberger,  A. Luenser,  A. Manjanath,  P. Manohar,  E. Mansoor,  
 S. F. Manzer,  Shan-Ping Mao,  A. V. Marenich,  T. Markovich,  S. Mason,  
 S. A. Maurer,  P. F. McLaughlin,  M. F. S. J. Menger,  J.-M. Mewes,  
 S. A. Mewes,  P. Morgante,  J. W. Mullinax,  T. S. Nguyen-Beck,  
 K. J. Oosterbaan,  G. Paran,  Alexander C. Paul,  Suranjan K. Paul,  
 F. Pavosevic,  Zheng Pei,  S. Prager,  E. I. Proynov,  E. Ramos,  B. Rana,  
 A. E. Rask,  A. Rettig,  R. M. Richard,  F. Rob,  E. Rossomme,  T. Scheele,  
 M. Scheurer,  M. Schneider,  N. Sergueev,  S. M. Sharada,  W. Skomorowski,  
 D. W. Small,  C. J. Stein,  Yu-Chuan Su,  E. J. Sundstrom,  Zhen Tao,  
 J. Thirman,  T. Tsuchimochi,  N. M. Tubman,  S. P. Veccham,  O. Vydrov,  
 J. Wenzel,  J. Witte,  A. Yamada,  Kun Yao,  S. Yeganeh,  S. R. Yost,  
 A. Zech,  Igor Ying Zhang,  Xing Zhang,  Yu Zhang,  D. Zuev,  
 A. Aspuru-Guzik,  A. T. Bell,  N. A. Besley,  K. B. Bravaya,  B. R. Brooks,  
 D. Casanova,  Jeng-Da Chai,  S. Coriani,  C. J. Cramer,  
 A. E. DePrince, III,  R. A. DiStasio Jr.,  A. Dreuw,  B. D. Dunietz,  
 T. R. Furlani,  W. A. Goddard III,  S. Grimme,  S. Hammes-Schiffer,  
 T. Head-Gordon,  W. J. Hehre,  Chao-Ping Hsu,  T.-C. Jagau,  Yousung Jung,  
 A. Klamt,  Jing Kong,  D. S. Lambrecht,  WanZhen Liang,  N. J. Mayhall,  
 C. W. McCurdy,  J. B. Neaton,  C. Ochsenfeld,  J. A. Parkhill,  R. Peverati,  
 V. A. Rassolov,  Yihan Shao,  L. V. Slipchenko,  T. Stauch,  R. P. Steele,  
 J. E. Subotnik,  A. J. W. Thom,  A. Tkatchenko,  D. G. Truhlar,  
 T. Van Voorhis,  T. A. Wesolowski,  K. B. Whaley,  H. L. Woodcock III,  
 P. M. Zimmerman,  S. Faraji,  P. M. W. Gill,  M. Head-Gordon,  
 J. M. Herbert,  A. I. Krylov

 Contributors to earlier versions of Q-Chem not listed above: 
 R. D. Adamson,  B. Austin,  R. Baer,  J. Baker,  G. J. O. Beran,  
 K. Brandhorst,  S. T. Brown,  E. F. C. Byrd,  A. K. Chakraborty,  
 G. K. L. Chan,  Chun-Min Chang,  Yunqing Chen,  C.-L. Cheng,  
 Siu Hung Chien,  D. M. Chipman,  D. L. Crittenden,  H. Dachsel,  
 R. J. Doerksen,  A. D. Dutoi,  R. G. Edgar,  J. Fosso-Tande,  
 L. Fusti-Molnar,  D. Ghosh,  A. Ghysels,  A. Golubeva-Zadorozhnaya,  
 J. Gonthier,  M. S. Gordon,  S. R. Gwaltney,  G. Hawkins,  J. E. Herr,  
 A. Heyden,  S. Hirata,  E. G. Hohenstein,  G. Kedziora,  F. J. Keil,  
 C. Kelley,  Jihan Kim,  R. A. King,  R. Z. Khaliullin,  P. P. Korambath,  
 W. Kurlancheek,  A. Laurent,  A. M. Lee,  M. S. Lee,  S. V. Levchenko,  
 Ching Yeh Lin,  D. Liotard,  E. Livshits,  R. C. Lochan,  I. Lotan,  
 L. A. Martinez-Martinez,  P. E. Maslen,  N. Nair,  D. P. O'Neill,  
 D. Neuhauser,  E. Neuscamman,  C. M. Oana,  R. Olivares-Amaya,  R. Olson,  
 T. M. Perrine,  B. Peters,  P. A. Pieniazek,  A. Prociuk,  Y. M. Rhee,  
 J. Ritchie,  M. A. Rohrdanz,  E. Rosta,  N. J. Russ,  H. F. Schaefer III,  
 M. W. Schmidt,  N. E. Schultz,  S. Sharma,  N. Shenvi,  C. D. Sherrill,  
 A. C. Simmonett,  A. Sodt,  T. Stein,  D. Stuck,  K. S. Thanthiriwatte,  
 V. Vanovschi,  L. Vogt,  Tao Wang,  A. Warshel,  M. A. Watson,  
 C. F. Williams,  Q. Wu,  X. Xu,  Jun Yang,  W. Zhang,  Yan Zhao

 Please cite Q-Chem as follows:
 Y. Shao et al., Mol. Phys. 113, 184-215 (2015)
 DOI: 10.1080/00268976.2014.952696

 Q-Chem 5.4.0 for Intel X86 EM64T Linux

 Parts of Q-Chem use Armadillo 9.800.1 (Horizon Scraper).
 http://arma.sourceforge.net/

 Q-Chem begins on Tue Dec  5 17:13:32 2023  

 Host: 
0

     Scratch files written to /local_scratch/pbs.1652979[0].pbs02/pyqchem_1059338//
 May1621 |scratch|qcdevops|jenkins|workspace|build_RNUM 6351   
 Parallel job on  1  processors
 Processing $rem in /software/commercial/MERCURY/QChem/5.4.0/config/preferences:
 Processing $rem in /home/jeanettepatel/.qchemrc:

 Checking the input file for inconsistencies... 	...done.

--------------------------------------------------------------
User input:
--------------------------------------------------------------
$molecule
0 1
C	        3.0712240000        -0.1736940000         0.0769740000
C	        2.2597050000         0.5085680000         0.2618320000
H	        1.4779090000         1.1526710000         0.4320410000
C	        4.2298570000        -1.1423380000        -0.1801670000
H	        4.2428250000        -1.9442470000         0.5637110000
H	        5.1919520000        -0.6240800000        -0.1317760000
H	        4.1455940000        -1.6025120000        -1.1689890000
H	       -0.3820270000         3.1368500000        -0.1256620000
O	       -0.4860440000         2.2923080000         0.3231290000
C	       -1.2836810000         1.4224860000        -0.4964050000
C	       -1.6050370000         0.1703110000         0.3047000000
C	       -2.4413690000        -0.8406240000        -0.4886700000
C	       -2.7622640000        -2.1040760000         0.3161280000
H	       -0.7325990000         1.1563360000        -1.4087710000
H	       -2.2103900000         1.9298260000        -0.7950950000
H	       -0.6658430000        -0.2952270000         0.6220900000
H	       -2.1363580000         0.4645300000         1.2168550000
H	       -1.9043390000        -1.1186390000        -1.4036860000
H	       -3.3765290000        -0.3681970000        -0.8142640000
H	       -1.8460430000        -2.6159220000         0.6261390000
H	       -3.3278750000        -1.8621560000         1.2213900000
H	       -3.3571800000        -2.8101730000        -0.2696650000
$end
$rem
jobtype polarizability
method tpss
basis 6-311++g**
thresh 14
scf_convergence 9
scf_algorithm diis
max_scf_cycles 200
gui 2
set_iter 30
RPA False
mem_total 40000
mem_static 2000
n_frozen_virtual 0
mom_start False
skip_scfman False
scf_guess_mix False
symmetry False
sym_ignore True
sym_tol 5
dft_d d3
xc_smart_grid True
xc_grid 000099000590
$end

--------------------------------------------------------------
 Adding empirical dispersion correction 
 ----------------------------------------------------------------
 Doing -D3(OP) with
 s6  =   1.00000
 s8  =   0.51581
 a1  =   0.57500
 a2  =   3.00000
 pow =   14.00000
 -D3 energy without 3body term =     -0.0094149261 hartrees
 ----------------------------------------------------------------
             Standard Nuclear Orientation (Angstroms)
    I     Atom           X                Y                Z
 ----------------------------------------------------------------
    1      C       3.0712240000    -0.1736940000     0.0769740000
    2      C       2.2597050000     0.5085680000     0.2618320000
    3      H       1.4779090000     1.1526710000     0.4320410000
    4      C       4.2298570000    -1.1423380000    -0.1801670000
    5      H       4.2428250000    -1.9442470000     0.5637110000
    6      H       5.1919520000    -0.6240800000    -0.1317760000
    7      H       4.1455940000    -1.6025120000    -1.1689890000
    8      H      -0.3820270000     3.1368500000    -0.1256620000
    9      O      -0.4860440000     2.2923080000     0.3231290000
   10      C      -1.2836810000     1.4224860000    -0.4964050000
   11      C      -1.6050370000     0.1703110000     0.3047000000
   12      C      -2.4413690000    -0.8406240000    -0.4886700000
   13      C      -2.7622640000    -2.1040760000     0.3161280000
   14      H      -0.7325990000     1.1563360000    -1.4087710000
   15      H      -2.2103900000     1.9298260000    -0.7950950000
   16      H      -0.6658430000    -0.2952270000     0.6220900000
   17      H      -2.1363580000     0.4645300000     1.2168550000
   18      H      -1.9043390000    -1.1186390000    -1.4036860000
   19      H      -3.3765290000    -0.3681970000    -0.8142640000
   20      H      -1.8460430000    -2.6159220000     0.6261390000
   21      H      -3.3278750000    -1.8621560000     1.2213900000
   22      H      -3.3571800000    -2.8101730000    -0.2696650000
 ----------------------------------------------------------------
 Nuclear Repulsion Energy =         340.62598379 hartrees
 There are       32 alpha and       32 beta electrons
 Requested basis set is 6-311++G(d,p)
 There are 118 shells and 274 basis functions

 Total QAlloc Memory Limit  40000 MB
 Mega-Array Size      1956 MB
 MEM_STATIC part      2000 MB
 A cutoff of  1.0D-14 yielded   6031 shell pairs
 There are     32201 function pairs (     33994 Cartesian)
 Smallest overlap matrix eigenvalue = 3.07E-07
 Linear dependence detected in AO basis
 Tighter screening thresholds may be required for diffuse basis sets
 Use S2THRESH > 14 and THRESH = 14 in case of SCF convergence issues
 Number of orthogonalized atomic orbitals = 273
 Maximum deviation from orthogonality = 1.083E-11

 Scale SEOQF with 1.000000e-02/1.000000e-01/1.000000e-01

 Standard Electronic Orientation quadrupole field applied
 Nucleus-field energy     =     0.0000000096 hartrees
 Guess from superposition of atomic densities
 Warning:  Energy on first SCF cycle will be non-variational
 SAD guess density has 64.000000 electrons

 -----------------------------------------------------------------------
  General SCF calculation program by
  Eric Jon Sundstrom, Paul Horn, Yuezhi Mao, Dmitri Zuev, Alec White,
  David Stuck, Shaama M.S., Shane Yost, Joonho Lee, David Small,
  Daniel Levine, Susi Lehtola, Hugh Burton, Evgeny Epifanovsky,
  Bang C. Huynh
 -----------------------------------------------------------------------
 Exchange:  TPSS      Correlation:  TPSS
 Using Euler-Maclaurin-Lebedev (99,590) quadrature formula
 Dispersion:   Grimme D3
 using 12 threads for integral computing
 -------------------------------------------------------
 OpenMP Integral computing Module                
 Release: version 1.0, May 2013, Q-Chem Inc. Pittsburgh 
 -------------------------------------------------------
 A restricted SCF calculation will be
 performed using DIIS
 SCF converges when DIIS error is below 1.0e-09
 ---------------------------------------
  Cycle       Energy         DIIS error
 ---------------------------------------
    1    -351.2994870570      3.53e-02  
    2    -350.0995978349      6.02e-03  
    3    -349.8685692236      7.78e-03  
    4    -350.4322908233      1.18e-03  
    5    -350.4402417323      5.18e-04  
    6    -350.4420561954      1.31e-04  
    7    -350.4421944769      3.71e-05  
    8    -350.4422066044      7.24e-06  
    9    -350.4422067924      5.73e-06  
   10    -350.4422070763      1.50e-06  
   11    -350.4422070959      3.34e-07  
   12    -350.4422070969      6.75e-08  
   13    -350.4422070970      1.28e-08  
   14    -350.4422070970      5.31e-09  
   15    -350.4422070970      1.06e-09  
   16    -350.4422070970      2.65e-10  Convergence criterion met
 ---------------------------------------
 SCF time:   CPU 554.40s  wall 47.00s 
 SCF   energy in the final basis set =     -350.4422070970
 Total energy in the final basis set =     -350.4422070970
 
 --------------------------------------------------------------
 
                    Orbital Energies (a.u.)
 --------------------------------------------------------------
 
 Alpha MOs
 -- Occupied --
-18.8844 -10.0325 -10.0041  -9.9841  -9.9788  -9.9746  -9.9438  -9.9213
 -0.9581  -0.7390  -0.7156  -0.6687  -0.6496  -0.5799  -0.5361  -0.4739
 -0.4666  -0.4393  -0.3961  -0.3925  -0.3904  -0.3818  -0.3817  -0.3625
 -0.3310  -0.3203  -0.3018  -0.2946  -0.2895  -0.2512  -0.2511  -0.2380
 -- Virtual --
 -0.0170  -0.0096  -0.0036   0.0069   0.0142   0.0223   0.0303   0.0310
  0.0397   0.0451   0.0505   0.0551   0.0576   0.0645   0.0668   0.0721
  0.0769   0.0833   0.0888   0.0908   0.0968   0.1002   0.1074   0.1148
  0.1183   0.1210   0.1302   0.1310   0.1361   0.1388   0.1467   0.1473
  0.1516   0.1568   0.1603   0.1635   0.1681   0.1707   0.1722   0.1741
  0.1818   0.1856   0.1872   0.1970   0.1994   0.2061   0.2062   0.2136
  0.2197   0.2227   0.2263   0.2300   0.2399   0.2499   0.2659   0.2701
  0.2810   0.2885   0.2907   0.2991   0.3292   0.3353   0.3383   0.3550
  0.3672   0.4158   0.4289   0.4348   0.4387   0.4482   0.4676   0.4752
  0.4858   0.5025   0.5180   0.5359   0.5487   0.5567   0.5691   0.5951
  0.6133   0.6191   0.6227   0.6289   0.6312   0.6456   0.6504   0.6539
  0.6641   0.6710   0.6732   0.6847   0.6872   0.7033   0.7111   0.7201
  0.7366   0.7431   0.7540   0.7732   0.8365   0.8473   0.8739   0.9201
  0.9479   0.9594   0.9643   0.9867   0.9993   1.0169   1.0322   1.0704
  1.1243   1.1505   1.1560   1.1615   1.2014   1.2186   1.2406   1.2557
  1.2621   1.2803   1.3334   1.3386   1.3817   1.4378   1.4491   1.4636
  1.4670   1.4960   1.5123   1.5197   1.5388   1.5545   1.5599   1.5640
  1.5757   1.5914   1.5966   1.6261   1.6310   1.6390   1.6415   1.6542
  1.6669   1.6737   1.6785   1.6952   1.7131   1.7276   1.7360   1.7753
  1.8111   1.8441   1.8865   1.9039   1.9110   1.9501   2.0242   2.0330
  2.0512   2.0570   2.0791   2.0827   2.1500   2.1807   2.1893   2.1984
  2.2007   2.2129   2.2851   2.3430   2.3473   2.3883   2.4349   2.4675
  2.4701   2.4712   2.4877   2.5081   2.5186   2.5349   2.5425   2.5801
  2.5867   2.5931   2.6111   2.6542   2.6614   2.6929   2.7063   2.7242
  2.7416   2.7494   2.7633   2.7681   2.8042   2.8113   2.8322   2.8355
  2.8458   2.8866   2.9289   2.9730   3.0006   3.0151   3.0301   3.0767
  3.0827   3.1026   3.1094   3.1819   3.2545   3.2790   3.4081   3.5219
  3.6314   3.7955   3.8097   3.8176   3.8178   3.8286   3.8548   3.8652
  3.8787   3.9646   4.0930   4.1979   4.2582   4.3179   5.0762   5.3607
  5.6161  23.7588  23.8349  23.8695  23.9145  23.9236  23.9779  25.6239
 49.9418
 --------------------------------------------------------------
 
          Ground-State Mulliken Net Atomic Charges

     Atom                 Charge (a.u.)
  ----------------------------------------
      1 C                     0.411668
      2 C                    -0.211615
      3 H                     0.226041
      4 C                    -0.921677
      5 H                     0.175709
      6 H                     0.176852
      7 H                     0.173631
      8 H                     0.254685
      9 O                    -0.268570
     10 C                    -0.562645
     11 C                    -0.108716
     12 C                    -0.089463
     13 C                    -0.717047
     14 H                     0.182151
     15 H                     0.166617
     16 H                     0.125589
     17 H                     0.185392
     18 H                     0.152791
     19 H                     0.148019
     20 H                     0.167607
     21 H                     0.162515
     22 H                     0.170468
  ----------------------------------------
  Sum of atomic charges =     0.000000

 -----------------------------------------------------------------
                    Cartesian Multipole Moments
 -----------------------------------------------------------------
    Charge (ESU x 10^10)
                 0.0000
    Dipole Moment (Debye)
         X      -0.5365      Y      -0.0521      Z      -1.5387
       Tot       1.6303
    Quadrupole Moments (Debye-Ang)
        XX     -46.5874     XY      -4.4942     YY     -46.7288
        XZ      -0.1973     YZ      -2.9642     ZZ     -53.4519
    Octopole Moments (Debye-Ang^2)
       XXX      23.9464    XXY     -11.7105    XYY       1.5498
       YYY      32.1747    XXZ      -3.5221    XYZ       2.1790
       YYZ      -9.3042    XZZ      -1.9053    YZZ       0.7104
       ZZZ      -0.7170
    Hexadecapole Moments (Debye-Ang^3)
      XXXX   -1966.9229   XXXY     -79.4826   XXYY    -460.3953
      XYYY     -26.4556   YYYY    -595.5505   XXXZ     -15.6193
      XXYZ       3.5387   XYYZ      10.1071   YYYZ     -17.8049
      XXZZ    -383.9830   XYZZ      -6.9511   YYZZ    -141.0775
      XZZZ      -8.2152   YZZZ       4.3399   ZZZZ    -139.2081
 -----------------------------------------------------------------
 <<<<<<<<<<<<<<<<<<<<<<<<<<<<<<<<<<<<<<<<<<<<<<<<<<<<<<<<<<<<<<<<<<<<<<<<<<<<<
  Calculating the polarizability using responseman/libresponse.
 =============================================================================
  responseman begin
 -----------------------------------------------------------------------------
  All stored options:
   _almo_do_virt_relocalization: 0
   _almo_project_occs: 0
   _almo_project_virts: 1
   _almo_use_frgm_coefs: 0
   _do_compute_generalized_density: 1
   _do_orthogonalization_canonical: 0
   _frgm_response_idx: 0
   _mask_dg_ao: 0
   _mask_ediff_mo: 0
   _mask_form_results_mo: 0
   _mask_ints_mnov_ao: 0
   _mask_j_ao: 0
   _mask_k_ao: 0
   _mask_operator_ao: 0
   _mask_product_mo: 0
   _mask_rhsvec_mo: 0
   _mask_rspvec_guess_mo: 0
   _mask_rspvec_mo: 0
   conv: 8
   diis_start: 1
   diis_vectors: 7
   dump_ao_integrals: 0
   force_nonorthogonal: 0
   force_not_nonorthogonal: 0
   hamiltonian: rpa
   integral_engine: libint
   maxiter: 60
   memory: 2000
   order: linear
   print_level: 2
   read: 0
   rhf_as_uhf: 0
   run_type: single
   save: 0
   solver: diis
   spin: singlet
 -----------------------------------------------------------------------------
  Settings
   nocc_alph: 32
   nvirt_alph: 241
   nocc_beta: 32
   nvirt_beta: 241
   nov_alph: 7712
   nov_beta: 7712
   Orbital Hessian: RPA
   Operator spin type: singlet
   Max. iter: 60
   Convergence threshold: 10^-8
   Frequencies: 0 
 -----------------------------------------------------------------------------
  Uncoupled result (initial guess):
  [   1 :     dipole 1 ,   1 :     dipole 1 ]:   136.028673041362594631
  [   1 :     dipole 1 ,   2 :     dipole 2 ]:   -15.291513074733547484
  [   1 :     dipole 1 ,   3 :     dipole 3 ]:    -2.933419294983181658
  [   2 :     dipole 2 ,   1 :     dipole 1 ]:   -15.291513074733547484
  [   2 :     dipole 2 ,   2 :     dipole 2 ]:   132.455138759993815256
  [   2 :     dipole 2 ,   3 :     dipole 3 ]:     3.732062536233876848
  [   3 :     dipole 3 ,   1 :     dipole 1 ]:    -2.933419294983182102
  [   3 :     dipole 3 ,   2 :     dipole 2 ]:     3.732062536233876848
  [   3 :     dipole 3 ,   3 :     dipole 3 ]:   117.831067918558574092
 -----------------------------------------------------------------------------
  iteration         rmsd        enorm
 -----------------------------------------------------------------------------
  Operator: dipole / component: 1 / origin: zero (0, 0, 0)
          1 1.459906e+01 1.459906e+01
          2 2.935000e+01 2.935000e+01
          3 2.252126e+01 4.204777e+00
          4 2.723429e+00 5.190241e-01
          5 4.431522e-01 2.131816e-01
          6 1.513161e-01 3.240685e-02
          7 2.337328e-02 9.523387e-03
          8 6.473295e-03 1.955811e-03
          9 1.319708e-03 6.214607e-04
         10 4.151499e-04 1.625065e-04
         11 1.313456e-04 9.598602e-05
         12 7.699466e-05 2.732264e-05
         13 2.165312e-05 1.386575e-05
         14 1.075713e-05 3.659099e-06
         15 2.569613e-06 5.977482e-07
         16 4.217836e-07 2.135175e-07
         17 1.512753e-07 6.503106e-08
         18 4.603192e-08 1.358653e-08
         19 1.083482e-08 6.392373e-09
  Operator: dipole / component: 2 / origin: zero (0, 0, 0)
          1 1.400459e+01 1.400459e+01
          2 2.819877e+01 2.819877e+01
          3 2.174097e+01 3.853247e+00
          4 2.555673e+00 4.999342e-01
          5 3.489877e-01 1.470297e-01
          6 1.024967e-01 3.142216e-02
          7 2.615583e-02 1.137473e-02
          8 7.955735e-03 1.817461e-03
          9 1.401739e-03 8.037732e-04
         10 5.355671e-04 1.995294e-04
         11 1.682633e-04 1.266070e-04
         12 1.043829e-04 3.317445e-05
         13 2.930958e-05 2.166207e-05
         14 1.383032e-05 2.244417e-06
         15 2.290616e-06 1.813242e-06
         16 1.525056e-06 6.674141e-07
         17 4.450007e-07 7.928528e-08
         18 6.081620e-08 4.054283e-08
         19 3.094692e-08 1.650407e-08
         20 1.022669e-08 2.034934e-09
  Operator: dipole / component: 3 / origin: zero (0, 0, 0)
          1 1.137737e+01 1.137737e+01
          2 1.582864e+01 1.582864e+01
          3 1.275470e+01 4.783231e+00
          4 3.404021e+00 7.000992e-01
          5 5.560452e-01 1.659628e-01
          6 1.276729e-01 4.399100e-02
          7 2.894539e-02 6.256027e-03
          8 3.659854e-03 1.195120e-03
          9 8.655898e-04 5.392755e-04
         10 3.716254e-04 1.628283e-04
         11 1.055173e-04 3.569923e-05
         12 3.904199e-05 2.648126e-05
         13 2.381438e-05 1.282606e-05
         14 1.128486e-05 5.087757e-06
         15 3.600396e-06 8.477007e-07
         16 5.919930e-07 2.637199e-07
         17 1.492564e-07 4.091539e-08
         18 2.910926e-08 1.855308e-08
         19 1.617185e-08 1.063223e-08
         20 6.665896e-09 1.543206e-09
 ----------------------------------------------------------------------------- 
  Final result: 
  [   1 :     dipole 1 ,   1 :     dipole 1 ]:    97.477207196625982988
  [   1 :     dipole 1 ,   2 :     dipole 2 ]:    -4.688904963995037534
  [   1 :     dipole 1 ,   3 :     dipole 3 ]:    -1.300695718686160296
  [   2 :     dipole 2 ,   1 :     dipole 1 ]:    -4.688904971008911460
  [   2 :     dipole 2 ,   2 :     dipole 2 ]:    93.683262685363573041
  [   2 :     dipole 2 ,   3 :     dipole 3 ]:     0.433625540933169185
  [   3 :     dipole 3 ,   1 :     dipole 1 ]:    -1.300695715172970557
  [   3 :     dipole 3 ,   2 :     dipole 2 ]:     0.433625538246906861
  [   3 :     dipole 3 ,   3 :     dipole 3 ]:    76.381188785254067852
  time (s):             305.2031
 -----------------------------------------------------------------------------
  responseman end
 =============================================================================
 -----------------------------------------------------------------------------
  Polarizability tensor      [a.u.]
     97.4772072     -4.6889050     -1.3006957
     -4.6889050     93.6832627      0.4336255
     -1.3006957      0.4336255     76.3811888
  Principal components       [a.u.]
     76.3000029     90.5315705    100.7100852
  Isotropic polarizability   [a.u.]
     89.1805529
  Anisotropic polarizability [a.u.]
     21.2366639
  Polarizability tensor      [angstrom^3]
     14.4446318     -0.6948240     -0.1927432
     -0.6948240     13.8824272      0.0642567
     -0.1927432      0.0642567     11.3185244
  Principal components       [angstrom^3]
     11.3064939     13.4153947     14.9236949
  Isotropic polarizability   [angstrom^3]
     13.2151945
  Anisotropic polarizability [angstrom^3]
      3.1469489
  Orientation
      0.0593397     -0.5560336      0.8290389
     -0.0088940     -0.8307639     -0.5565539
      0.9981982      0.0256523     -0.0542426
 >>>>>>>>>>>>>>>>>>>>>>>>>>>>>>>>>>>>>>>>>>>>>>>>>>>>>>>>>>>>>>>>>>>>>>>>>>>>>
 Total job time:  353.61s(wall), 4166.64s(cpu) 
 Tue Dec  5 17:19:26 2023

        *************************************************************
        *                                                           *
        *  Thank you very much for using Q-Chem.  Have a nice day.  *
        *                                                           *
        *************************************************************


0 sent ACK to 0 
now end server 0 ... 
