Process 0 of 1 is on skystd40.palmetto.clemson.edu - thread support 0
initial socket setup ...start
initial socket setup ...done 
now start server 0 ... 
                  Welcome to Q-Chem
     A Quantum Leap Into The Future Of Chemistry


 Q-Chem 5.4, Q-Chem, Inc., Pleasanton, CA (2021)

 License issued to: SRG Carol Parish, MERCURY Consortium

 E. Epifanovsky,  A. T. B. Gilbert,  Xintian Feng,  Joonho Lee,  Yuezhi Mao,  
 N. Mardirossian,  P. Pokhilko,  A. White,  M. Wormit,  M. P. Coons,  
 A. L. Dempwolff,  Zhengting Gan,  D. Hait,  P. R. Horn,  L. D. Jacobson,  
 I. Kaliman,  J. Kussmann,  A. W. Lange,  Ka Un Lao,  D. S. Levine,  Jie Liu,  
 S. C. McKenzie,  A. F. Morrison,  K. Nanda,  F. Plasser,  D. R. Rehn,  
 M. L. Vidal,  Zhi-Qiang You,  Ying Zhu,  B. Alam,  B. Albrecht,  
 A. Aldossary,  E. Alguire,  J. H. Andersen,  D. Barton,  K. Begam,  A. Behn,  
 Y. A. Bernard,  E. J. Berquist,  H. Burton,  A. Carreras,  K. Carter-Fenk,  
 R. Chakraborty,  A. D. Chien,  K. D. Closser,  V. Cofer-Shabica,  
 S. Dasgupta,  Jia Deng,  M. de Wergifosse,  M. Diedenhofen,  Hainam Do,  
 S. Ehlert,  Po-Tung Fang,  S. Fatehi,  Qingguo Feng,  J. Gayvert,  
 Qinghui Ge,  G. Gidofalvi,  M. Goldey,  J. Gomes,  C. Gonzalez-Espinoza,  
 S. Gulania,  A. Gunina,  M. W. D. Hanson-Heine,  P. H. P. Harbach,  
 A. W. Hauser,  M. F. Herbst,  M. Hernandez Vera,  M. Hodecker,  
 Z. C. Holden,  S. Houck,  Xunkun Huang,  Kerwin Hui,  B. C. Huynh,  
 M. Ivanov,  Hyunjun Ji,  Hanjie Jiang,  B. Kaduk,  S. Kaehler,  
 K. Khistyaev,  Jaehoon Kim,  P. Klunzinger,  Z. Koczor-Benda,  
 Joong Hoon Koh,  D. Kosenkov,  L. Koulias,  T. Kowalczyk,  C. M. Krauter,  
 K. Kue,  A. Kunitsa,  T. Kus,  A. Landau,  K. V. Lawler,  D. Lefrancois,  
 S. Lehtola,  Rain Li,  Yi-Pei Li,  Jiashu Liang,  M. Liebenthal,  
 Hung-Hsuan Lin,  You-Sheng Lin,  Fenglai Liu,  Kuan-Yu Liu,  
 M. Loipersberger,  A. Luenser,  A. Manjanath,  P. Manohar,  E. Mansoor,  
 S. F. Manzer,  Shan-Ping Mao,  A. V. Marenich,  T. Markovich,  S. Mason,  
 S. A. Maurer,  P. F. McLaughlin,  M. F. S. J. Menger,  J.-M. Mewes,  
 S. A. Mewes,  P. Morgante,  J. W. Mullinax,  T. S. Nguyen-Beck,  
 K. J. Oosterbaan,  G. Paran,  Alexander C. Paul,  Suranjan K. Paul,  
 F. Pavosevic,  Zheng Pei,  S. Prager,  E. I. Proynov,  E. Ramos,  B. Rana,  
 A. E. Rask,  A. Rettig,  R. M. Richard,  F. Rob,  E. Rossomme,  T. Scheele,  
 M. Scheurer,  M. Schneider,  N. Sergueev,  S. M. Sharada,  W. Skomorowski,  
 D. W. Small,  C. J. Stein,  Yu-Chuan Su,  E. J. Sundstrom,  Zhen Tao,  
 J. Thirman,  T. Tsuchimochi,  N. M. Tubman,  S. P. Veccham,  O. Vydrov,  
 J. Wenzel,  J. Witte,  A. Yamada,  Kun Yao,  S. Yeganeh,  S. R. Yost,  
 A. Zech,  Igor Ying Zhang,  Xing Zhang,  Yu Zhang,  D. Zuev,  
 A. Aspuru-Guzik,  A. T. Bell,  N. A. Besley,  K. B. Bravaya,  B. R. Brooks,  
 D. Casanova,  Jeng-Da Chai,  S. Coriani,  C. J. Cramer,  
 A. E. DePrince, III,  R. A. DiStasio Jr.,  A. Dreuw,  B. D. Dunietz,  
 T. R. Furlani,  W. A. Goddard III,  S. Grimme,  S. Hammes-Schiffer,  
 T. Head-Gordon,  W. J. Hehre,  Chao-Ping Hsu,  T.-C. Jagau,  Yousung Jung,  
 A. Klamt,  Jing Kong,  D. S. Lambrecht,  WanZhen Liang,  N. J. Mayhall,  
 C. W. McCurdy,  J. B. Neaton,  C. Ochsenfeld,  J. A. Parkhill,  R. Peverati,  
 V. A. Rassolov,  Yihan Shao,  L. V. Slipchenko,  T. Stauch,  R. P. Steele,  
 J. E. Subotnik,  A. J. W. Thom,  A. Tkatchenko,  D. G. Truhlar,  
 T. Van Voorhis,  T. A. Wesolowski,  K. B. Whaley,  H. L. Woodcock III,  
 P. M. Zimmerman,  S. Faraji,  P. M. W. Gill,  M. Head-Gordon,  
 J. M. Herbert,  A. I. Krylov

 Contributors to earlier versions of Q-Chem not listed above: 
 R. D. Adamson,  B. Austin,  R. Baer,  J. Baker,  G. J. O. Beran,  
 K. Brandhorst,  S. T. Brown,  E. F. C. Byrd,  A. K. Chakraborty,  
 G. K. L. Chan,  Chun-Min Chang,  Yunqing Chen,  C.-L. Cheng,  
 Siu Hung Chien,  D. M. Chipman,  D. L. Crittenden,  H. Dachsel,  
 R. J. Doerksen,  A. D. Dutoi,  R. G. Edgar,  J. Fosso-Tande,  
 L. Fusti-Molnar,  D. Ghosh,  A. Ghysels,  A. Golubeva-Zadorozhnaya,  
 J. Gonthier,  M. S. Gordon,  S. R. Gwaltney,  G. Hawkins,  J. E. Herr,  
 A. Heyden,  S. Hirata,  E. G. Hohenstein,  G. Kedziora,  F. J. Keil,  
 C. Kelley,  Jihan Kim,  R. A. King,  R. Z. Khaliullin,  P. P. Korambath,  
 W. Kurlancheek,  A. Laurent,  A. M. Lee,  M. S. Lee,  S. V. Levchenko,  
 Ching Yeh Lin,  D. Liotard,  E. Livshits,  R. C. Lochan,  I. Lotan,  
 L. A. Martinez-Martinez,  P. E. Maslen,  N. Nair,  D. P. O'Neill,  
 D. Neuhauser,  E. Neuscamman,  C. M. Oana,  R. Olivares-Amaya,  R. Olson,  
 T. M. Perrine,  B. Peters,  P. A. Pieniazek,  A. Prociuk,  Y. M. Rhee,  
 J. Ritchie,  M. A. Rohrdanz,  E. Rosta,  N. J. Russ,  H. F. Schaefer III,  
 M. W. Schmidt,  N. E. Schultz,  S. Sharma,  N. Shenvi,  C. D. Sherrill,  
 A. C. Simmonett,  A. Sodt,  T. Stein,  D. Stuck,  K. S. Thanthiriwatte,  
 V. Vanovschi,  L. Vogt,  Tao Wang,  A. Warshel,  M. A. Watson,  
 C. F. Williams,  Q. Wu,  X. Xu,  Jun Yang,  W. Zhang,  Yan Zhao

 Please cite Q-Chem as follows:
 Y. Shao et al., Mol. Phys. 113, 184-215 (2015)
 DOI: 10.1080/00268976.2014.952696

 Q-Chem 5.4.0 for Intel X86 EM64T Linux

 Parts of Q-Chem use Armadillo 9.800.1 (Horizon Scraper).
 http://arma.sourceforge.net/

 Q-Chem begins on Tue Dec  5 17:55:08 2023  

 Host: 
0

     Scratch files written to /local_scratch/pbs.1652979[0].pbs02/pyqchem_1059338//
 May1621 |scratch|qcdevops|jenkins|workspace|build_RNUM 6351   
 Parallel job on  1  processors
 Processing $rem in /software/commercial/MERCURY/QChem/5.4.0/config/preferences:
 Processing $rem in /home/jeanettepatel/.qchemrc:

 Checking the input file for inconsistencies... 	...done.

--------------------------------------------------------------
User input:
--------------------------------------------------------------
$molecule
0 1
C	        3.1966730000        -0.2785720000         0.0491320000
C	        2.1698100000         0.5841150000         0.2822720000
H	        1.3160860000         1.2858180000         0.4671710000
C	        4.2298570000        -1.1423380000        -0.1801670000
H	        4.2428250000        -1.9442470000         0.5637110000
H	        5.1919520000        -0.6240800000        -0.1317760000
H	        4.1455940000        -1.6025120000        -1.1689890000
H	       -0.3820270000         3.1368500000        -0.1256620000
O	       -0.4860440000         2.2923080000         0.3231290000
C	       -1.2836810000         1.4224860000        -0.4964050000
C	       -1.6050370000         0.1703110000         0.3047000000
C	       -2.4413690000        -0.8406240000        -0.4886700000
C	       -2.7622640000        -2.1040760000         0.3161280000
H	       -0.7325990000         1.1563360000        -1.4087710000
H	       -2.2103900000         1.9298260000        -0.7950950000
H	       -0.6658430000        -0.2952270000         0.6220900000
H	       -2.1363580000         0.4645300000         1.2168550000
H	       -1.9043390000        -1.1186390000        -1.4036860000
H	       -3.3765290000        -0.3681970000        -0.8142640000
H	       -1.8460430000        -2.6159220000         0.6261390000
H	       -3.3278750000        -1.8621560000         1.2213900000
H	       -3.3571800000        -2.8101730000        -0.2696650000
$end
$rem
jobtype polarizability
method tpss
basis 6-311++g**
thresh 14
scf_convergence 9
scf_algorithm diis
max_scf_cycles 200
gui 2
set_iter 30
RPA False
mem_total 40000
mem_static 2000
n_frozen_virtual 0
mom_start False
skip_scfman False
scf_guess_mix False
symmetry False
sym_ignore True
sym_tol 5
dft_d d3
xc_smart_grid True
xc_grid 000099000590
$end

--------------------------------------------------------------
 Adding empirical dispersion correction 
 ----------------------------------------------------------------
 Doing -D3(OP) with
 s6  =   1.00000
 s8  =   0.51581
 a1  =   0.57500
 a2  =   3.00000
 pow =   14.00000
 -D3 energy without 3body term =     -0.0094166204 hartrees
 ----------------------------------------------------------------
             Standard Nuclear Orientation (Angstroms)
    I     Atom           X                Y                Z
 ----------------------------------------------------------------
    1      C       3.1966730000    -0.2785720000     0.0491320000
    2      C       2.1698100000     0.5841150000     0.2822720000
    3      H       1.3160860000     1.2858180000     0.4671710000
    4      C       4.2298570000    -1.1423380000    -0.1801670000
    5      H       4.2428250000    -1.9442470000     0.5637110000
    6      H       5.1919520000    -0.6240800000    -0.1317760000
    7      H       4.1455940000    -1.6025120000    -1.1689890000
    8      H      -0.3820270000     3.1368500000    -0.1256620000
    9      O      -0.4860440000     2.2923080000     0.3231290000
   10      C      -1.2836810000     1.4224860000    -0.4964050000
   11      C      -1.6050370000     0.1703110000     0.3047000000
   12      C      -2.4413690000    -0.8406240000    -0.4886700000
   13      C      -2.7622640000    -2.1040760000     0.3161280000
   14      H      -0.7325990000     1.1563360000    -1.4087710000
   15      H      -2.2103900000     1.9298260000    -0.7950950000
   16      H      -0.6658430000    -0.2952270000     0.6220900000
   17      H      -2.1363580000     0.4645300000     1.2168550000
   18      H      -1.9043390000    -1.1186390000    -1.4036860000
   19      H      -3.3765290000    -0.3681970000    -0.8142640000
   20      H      -1.8460430000    -2.6159220000     0.6261390000
   21      H      -3.3278750000    -1.8621560000     1.2213900000
   22      H      -3.3571800000    -2.8101730000    -0.2696650000
 ----------------------------------------------------------------
 Nuclear Repulsion Energy =         338.12378301 hartrees
 There are       32 alpha and       32 beta electrons
 Requested basis set is 6-311++G(d,p)
 There are 118 shells and 274 basis functions

 Total QAlloc Memory Limit  40000 MB
 Mega-Array Size      1956 MB
 MEM_STATIC part      2000 MB
 A cutoff of  1.0D-14 yielded   6022 shell pairs
 There are     32114 function pairs (     33899 Cartesian)
 Smallest overlap matrix eigenvalue = 1.15E-06

 Scale SEOQF with 1.000000e-02/1.000000e-01/1.000000e-01

 Standard Electronic Orientation quadrupole field applied
 Nucleus-field energy     =     0.0000000096 hartrees
 Guess from superposition of atomic densities
 Warning:  Energy on first SCF cycle will be non-variational
 SAD guess density has 64.000000 electrons

 -----------------------------------------------------------------------
  General SCF calculation program by
  Eric Jon Sundstrom, Paul Horn, Yuezhi Mao, Dmitri Zuev, Alec White,
  David Stuck, Shaama M.S., Shane Yost, Joonho Lee, David Small,
  Daniel Levine, Susi Lehtola, Hugh Burton, Evgeny Epifanovsky,
  Bang C. Huynh
 -----------------------------------------------------------------------
 Exchange:  TPSS      Correlation:  TPSS
 Using Euler-Maclaurin-Lebedev (99,590) quadrature formula
 Dispersion:   Grimme D3
 using 12 threads for integral computing
 -------------------------------------------------------
 OpenMP Integral computing Module                
 Release: version 1.0, May 2013, Q-Chem Inc. Pittsburgh 
 -------------------------------------------------------
 A restricted SCF calculation will be
 performed using DIIS
 SCF converges when DIIS error is below 1.0e-09
 ---------------------------------------
  Cycle       Energy         DIIS error
 ---------------------------------------
    1    -351.1321168199      3.32e-02  
    2    -350.1744035685      5.33e-03  
    3    -349.9488754048      7.27e-03  
    4    -350.4306021959      1.51e-03  
    5    -350.4372272510      1.16e-03  
    6    -350.4489946177      4.63e-04  
    7    -350.4508543733      7.38e-05  
    8    -350.4508941072      2.50e-05  
    9    -350.4508995881      4.07e-06  
   10    -350.4508997207      1.63e-06  
   11    -350.4508997446      3.92e-07  
   12    -350.4508997461      7.35e-08  
   13    -350.4508997461      1.61e-08  
   14    -350.4508997461      6.32e-09  
   15    -350.4508997461      1.19e-09  
   16    -350.4508997461      2.56e-10  Convergence criterion met
 ---------------------------------------
 SCF time:   CPU 559.43s  wall 48.00s 
 SCF   energy in the final basis set =     -350.4508997461
 Total energy in the final basis set =     -350.4508997461
 
 --------------------------------------------------------------
 
                    Orbital Energies (a.u.)
 --------------------------------------------------------------
 
 Alpha MOs
 -- Occupied --
-18.8907 -10.0345 -10.0031 -10.0014  -9.9934  -9.9842  -9.9791  -9.9744
 -0.9639  -0.7395  -0.7348  -0.6698  -0.6142  -0.5811  -0.5367  -0.4798
 -0.4712  -0.4414  -0.4087  -0.4006  -0.4005  -0.3938  -0.3910  -0.3635
 -0.3316  -0.3226  -0.3019  -0.2949  -0.2916  -0.2434  -0.2066  -0.2065
 -- Virtual --
 -0.0196  -0.0138  -0.0114  -0.0082  -0.0036   0.0088   0.0143   0.0254
  0.0340   0.0380   0.0395   0.0456   0.0512   0.0580   0.0615   0.0698
  0.0726   0.0838   0.0873   0.0887   0.0947   0.0966   0.1054   0.1116
  0.1135   0.1203   0.1261   0.1303   0.1322   0.1352   0.1426   0.1458
  0.1484   0.1545   0.1570   0.1599   0.1628   0.1653   0.1700   0.1725
  0.1736   0.1785   0.1828   0.1860   0.1973   0.1977   0.2009   0.2083
  0.2126   0.2156   0.2219   0.2265   0.2335   0.2450   0.2644   0.2664
  0.2803   0.2882   0.2915   0.2967   0.3239   0.3350   0.3383   0.3537
  0.3565   0.3699   0.4163   0.4278   0.4316   0.4377   0.4445   0.4495
  0.4693   0.4768   0.4993   0.5151   0.5351   0.5530   0.5761   0.5861
  0.6060   0.6096   0.6131   0.6167   0.6223   0.6289   0.6404   0.6499
  0.6521   0.6557   0.6651   0.6724   0.6853   0.6877   0.6951   0.7013
  0.7196   0.7378   0.7401   0.7588   0.7690   0.8002   0.8438   0.8693
  0.8932   0.9209   0.9503   0.9552   0.9653   0.9778   0.9873   1.0001
  1.0357   1.0776   1.1251   1.1480   1.1901   1.1944   1.2040   1.2147
  1.2415   1.2561   1.2612   1.3000   1.3094   1.3811   1.4274   1.4299
  1.4461   1.4500   1.4644   1.4702   1.4952   1.5305   1.5414   1.5540
  1.5562   1.5630   1.5709   1.5778   1.5901   1.5952   1.6002   1.6075
  1.6494   1.6648   1.6705   1.6945   1.7087   1.7286   1.7336   1.7544
  1.7740   1.8097   1.8296   1.8469   1.8504   1.8859   1.9351   1.9727
  2.0249   2.0372   2.0499   2.0582   2.0714   2.1242   2.1333   2.1499
  2.1833   2.1916   2.2080   2.2840   2.3426   2.3473   2.3872   2.3968
  2.4184   2.4235   2.4677   2.4874   2.5071   2.5173   2.5350   2.5427
  2.5722   2.5869   2.5901   2.5991   2.6144   2.6422   2.6460   2.6581
  2.6820   2.6984   2.7409   2.7488   2.7810   2.8161   2.8356   2.8439
  2.8491   2.8566   2.8846   2.9279   2.9342   2.9608   2.9749   3.0014
  3.0145   3.0413   3.0863   3.1749   3.2245   3.2512   3.2827   3.3776
  3.4090   3.4461   3.7953   3.8096   3.8285   3.8444   3.8452   3.8523
  3.8645   3.8784   3.9675   4.0538   4.0938   4.1997   4.3182   5.0863
  5.3809   5.6120  23.5527  23.8344  23.8694  23.9144  23.9781  23.9904
 24.6242  49.9387
 --------------------------------------------------------------
 
          Ground-State Mulliken Net Atomic Charges

     Atom                 Charge (a.u.)
  ----------------------------------------
      1 C                     1.086853
      2 C                    -1.986417
      3 H                     0.303963
      4 C                     0.052568
      5 H                     0.187046
      6 H                     0.188458
      7 H                     0.184690
      8 H                     0.261680
      9 O                    -0.267116
     10 C                    -0.581344
     11 C                    -0.081771
     12 C                    -0.095896
     13 C                    -0.716715
     14 H                     0.187862
     15 H                     0.168233
     16 H                     0.117896
     17 H                     0.185968
     18 H                     0.154166
     19 H                     0.147657
     20 H                     0.169574
     21 H                     0.162070
     22 H                     0.170576
  ----------------------------------------
  Sum of atomic charges =     0.000000

 -----------------------------------------------------------------
                    Cartesian Multipole Moments
 -----------------------------------------------------------------
    Charge (ESU x 10^10)
                -0.0000
    Dipole Moment (Debye)
         X      -0.5201      Y      -0.1673      Z      -1.6079
       Tot       1.6982
    Quadrupole Moments (Debye-Ang)
        XX     -45.5972     XY      -6.1254     YY     -46.7106
        XZ      -0.5555     YZ      -2.7830     ZZ     -54.4707
    Octopole Moments (Debye-Ang^2)
       XXX      29.6439    XXY     -18.0701    XYY      -0.0837
       YYY      31.7977    XXZ      -5.1662    XYZ       2.3241
       YYZ      -9.2241    XZZ      -4.4357    YZZ       0.0976
       ZZZ      -1.8125
    Hexadecapole Moments (Debye-Ang^3)
      XXXX   -1942.7175   XXXY    -101.3876   XXYY    -465.6646
      XYYY     -29.5950   YYYY    -598.7929   XXXZ     -20.4723
      XXYZ       2.8662   XYYZ      10.1166   YYYZ     -18.2608
      XXZZ    -390.8440   XYZZ      -8.3683   YYZZ    -142.6189
      XZZZ     -10.0563   YZZZ       3.4756   ZZZZ    -143.1106
 -----------------------------------------------------------------
 <<<<<<<<<<<<<<<<<<<<<<<<<<<<<<<<<<<<<<<<<<<<<<<<<<<<<<<<<<<<<<<<<<<<<<<<<<<<<
  Calculating the polarizability using responseman/libresponse.
 =============================================================================
  responseman begin
 -----------------------------------------------------------------------------
  All stored options:
   _almo_do_virt_relocalization: 0
   _almo_project_occs: 0
   _almo_project_virts: 1
   _almo_use_frgm_coefs: 0
   _do_compute_generalized_density: 1
   _do_orthogonalization_canonical: 0
   _frgm_response_idx: 0
   _mask_dg_ao: 0
   _mask_ediff_mo: 0
   _mask_form_results_mo: 0
   _mask_ints_mnov_ao: 0
   _mask_j_ao: 0
   _mask_k_ao: 0
   _mask_operator_ao: 0
   _mask_product_mo: 0
   _mask_rhsvec_mo: 0
   _mask_rspvec_guess_mo: 0
   _mask_rspvec_mo: 0
   conv: 8
   diis_start: 1
   diis_vectors: 7
   dump_ao_integrals: 0
   force_nonorthogonal: 0
   force_not_nonorthogonal: 0
   hamiltonian: rpa
   integral_engine: libint
   maxiter: 60
   memory: 2000
   order: linear
   print_level: 2
   read: 0
   rhf_as_uhf: 0
   run_type: single
   save: 0
   solver: diis
   spin: singlet
 -----------------------------------------------------------------------------
  Settings
   nocc_alph: 32
   nvirt_alph: 242
   nocc_beta: 32
   nvirt_beta: 242
   nov_alph: 7744
   nov_beta: 7744
   Orbital Hessian: RPA
   Operator spin type: singlet
   Max. iter: 60
   Convergence threshold: 10^-8
   Frequencies: 0 
 -----------------------------------------------------------------------------
  Uncoupled result (initial guess):
  [   1 :     dipole 1 ,   1 :     dipole 1 ]:   180.592057685082920671
  [   1 :     dipole 1 ,   2 :     dipole 2 ]:   -47.419721217784470468
  [   1 :     dipole 1 ,   3 :     dipole 3 ]:   -11.138904608031811705
  [   2 :     dipole 2 ,   1 :     dipole 1 ]:   -47.419721217784463363
  [   2 :     dipole 2 ,   2 :     dipole 2 ]:   164.185892724770184259
  [   2 :     dipole 2 ,   3 :     dipole 3 ]:    10.573797594194516591
  [   3 :     dipole 3 ,   1 :     dipole 1 ]:   -11.138904608031809929
  [   3 :     dipole 3 ,   2 :     dipole 2 ]:    10.573797594194513039
  [   3 :     dipole 3 ,   3 :     dipole 3 ]:   124.581386253467400138
 -----------------------------------------------------------------------------
  iteration         rmsd        enorm
 -----------------------------------------------------------------------------
  Operator: dipole / component: 1 / origin: zero (0, 0, 0)
          1 5.606795e+01 5.606795e+01
          2 2.319741e+02 2.319741e+02
          3 1.907211e+02 6.138033e+00
          4 4.079906e+00 1.342731e+00
          5 1.000749e+00 3.384354e-01
          6 2.462896e-01 4.840049e-02
          7 3.514833e-02 1.434580e-02
          8 9.483476e-03 3.210890e-03
          9 2.385850e-03 1.115400e-03
         10 7.312166e-04 2.459744e-04
         11 1.897549e-04 9.280896e-05
         12 7.980326e-05 4.420618e-05
         13 3.452794e-05 1.556065e-05
         14 1.153086e-05 2.310217e-06
         15 1.749044e-06 9.503788e-07
         16 1.027805e-06 5.155177e-07
         17 5.413604e-07 2.021399e-07
         18 1.786270e-07 4.615899e-08
         19 3.783280e-08 1.488446e-08
         20 1.031873e-08 3.895692e-09
  Operator: dipole / component: 2 / origin: zero (0, 0, 0)
          1 5.051161e+01 5.051161e+01
          2 2.075343e+02 2.075343e+02
          3 1.712763e+02 6.169932e+00
          4 4.278127e+00 1.159736e+00
          5 8.784884e-01 3.046569e-01
          6 2.230109e-01 6.597337e-02
          7 4.709553e-02 1.417399e-02
          8 9.405477e-03 2.719863e-03
          9 2.261175e-03 1.403609e-03
         10 9.218136e-04 2.547394e-04
         11 3.005524e-04 2.310464e-04
         12 2.198773e-04 6.447496e-05
         13 5.330899e-05 3.653741e-05
         14 2.702737e-05 9.569500e-06
         15 6.844438e-06 1.726075e-06
         16 1.509528e-06 1.027190e-06
         17 7.215643e-07 1.573876e-07
         18 1.077362e-07 7.443067e-08
         19 7.135441e-08 3.526882e-08
         20 2.420945e-08 3.111985e-09
  Operator: dipole / component: 3 / origin: zero (0, 0, 0)
          1 1.805925e+01 1.805925e+01
          2 6.087354e+01 6.087354e+01
          3 5.507728e+01 1.040467e+01
          4 8.294244e+00 2.173066e+00
          5 1.500202e+00 1.973324e-01
          6 1.427573e-01 5.963723e-02
          7 3.723997e-02 7.856452e-03
          8 4.588080e-03 1.766716e-03
          9 1.350937e-03 8.405842e-04
         10 5.762569e-04 2.278105e-04
         11 2.083909e-04 1.394517e-04
         12 1.557818e-04 6.055146e-05
         13 5.388687e-05 2.362403e-05
         14 1.911617e-05 7.988924e-06
         15 5.490261e-06 1.413559e-06
         16 9.403230e-07 3.865171e-07
         17 2.271333e-07 9.445930e-08
         18 6.834478e-08 4.052303e-08
         19 3.879776e-08 2.557862e-08
         20 2.225793e-08 9.362818e-09
 ----------------------------------------------------------------------------- 
  Final result: 
  [   1 :     dipole 1 ,   1 :     dipole 1 ]:   113.483779646909880512
  [   1 :     dipole 1 ,   2 :     dipole 2 ]:   -12.229905901543752123
  [   1 :     dipole 1 ,   3 :     dipole 3 ]:    -2.677738676067586532
  [   2 :     dipole 2 ,   1 :     dipole 1 ]:   -12.229905898879678716
  [   2 :     dipole 2 ,   2 :     dipole 2 ]:   102.047791398225712101
  [   2 :     dipole 2 ,   3 :     dipole 3 ]:     1.535033597688936435
  [   3 :     dipole 3 ,   1 :     dipole 1 ]:    -2.677738652295268196
  [   3 :     dipole 3 ,   2 :     dipole 2 ]:     1.535033578993782344
  [   3 :     dipole 3 ,   3 :     dipole 3 ]:    79.679751183232710332
  time (s):             311.7252
 -----------------------------------------------------------------------------
  responseman end
 =============================================================================
 -----------------------------------------------------------------------------
  Polarizability tensor      [a.u.]
    113.4837796    -12.2299059     -2.6777387
    -12.2299059    102.0477914      1.5350336
     -2.6777387      1.5350336     79.6797512
  Principal components       [a.u.]
     79.4510396     94.2665512    121.4937314
  Isotropic polarizability   [a.u.]
     98.4037741
  Anisotropic polarizability [a.u.]
     36.9351232
  Polarizability tensor      [angstrom^3]
     16.8165611     -1.8122851     -0.3967999
     -1.8122851     15.1219225      0.2274685
     -0.3967999      0.2274685     11.8073209
  Principal components       [angstrom^3]
     11.7734294     13.9688617     18.0035135
  Isotropic polarizability   [angstrom^3]
     14.5819349
  Anisotropic polarizability [angstrom^3]
      5.4732206
  Orientation
      0.0671876     -0.5359282      0.8415859
     -0.0313810     -0.8442097     -0.5350937
      0.9972467      0.0095419     -0.0735384
 >>>>>>>>>>>>>>>>>>>>>>>>>>>>>>>>>>>>>>>>>>>>>>>>>>>>>>>>>>>>>>>>>>>>>>>>>>>>>
 Total job time:  360.64s(wall), 4244.56s(cpu) 
 Tue Dec  5 18:01:09 2023

        *************************************************************
        *                                                           *
        *  Thank you very much for using Q-Chem.  Have a nice day.  *
        *                                                           *
        *************************************************************


0 sent ACK to 0 
now end server 0 ... 
