Process 0 of 1 is on skystd40.palmetto.clemson.edu - thread support 0
initial socket setup ...start
initial socket setup ...done 
now start server 0 ... 
                  Welcome to Q-Chem
     A Quantum Leap Into The Future Of Chemistry


 Q-Chem 5.4, Q-Chem, Inc., Pleasanton, CA (2021)

 License issued to: SRG Carol Parish, MERCURY Consortium

 E. Epifanovsky,  A. T. B. Gilbert,  Xintian Feng,  Joonho Lee,  Yuezhi Mao,  
 N. Mardirossian,  P. Pokhilko,  A. White,  M. Wormit,  M. P. Coons,  
 A. L. Dempwolff,  Zhengting Gan,  D. Hait,  P. R. Horn,  L. D. Jacobson,  
 I. Kaliman,  J. Kussmann,  A. W. Lange,  Ka Un Lao,  D. S. Levine,  Jie Liu,  
 S. C. McKenzie,  A. F. Morrison,  K. Nanda,  F. Plasser,  D. R. Rehn,  
 M. L. Vidal,  Zhi-Qiang You,  Ying Zhu,  B. Alam,  B. Albrecht,  
 A. Aldossary,  E. Alguire,  J. H. Andersen,  D. Barton,  K. Begam,  A. Behn,  
 Y. A. Bernard,  E. J. Berquist,  H. Burton,  A. Carreras,  K. Carter-Fenk,  
 R. Chakraborty,  A. D. Chien,  K. D. Closser,  V. Cofer-Shabica,  
 S. Dasgupta,  Jia Deng,  M. de Wergifosse,  M. Diedenhofen,  Hainam Do,  
 S. Ehlert,  Po-Tung Fang,  S. Fatehi,  Qingguo Feng,  J. Gayvert,  
 Qinghui Ge,  G. Gidofalvi,  M. Goldey,  J. Gomes,  C. Gonzalez-Espinoza,  
 S. Gulania,  A. Gunina,  M. W. D. Hanson-Heine,  P. H. P. Harbach,  
 A. W. Hauser,  M. F. Herbst,  M. Hernandez Vera,  M. Hodecker,  
 Z. C. Holden,  S. Houck,  Xunkun Huang,  Kerwin Hui,  B. C. Huynh,  
 M. Ivanov,  Hyunjun Ji,  Hanjie Jiang,  B. Kaduk,  S. Kaehler,  
 K. Khistyaev,  Jaehoon Kim,  P. Klunzinger,  Z. Koczor-Benda,  
 Joong Hoon Koh,  D. Kosenkov,  L. Koulias,  T. Kowalczyk,  C. M. Krauter,  
 K. Kue,  A. Kunitsa,  T. Kus,  A. Landau,  K. V. Lawler,  D. Lefrancois,  
 S. Lehtola,  Rain Li,  Yi-Pei Li,  Jiashu Liang,  M. Liebenthal,  
 Hung-Hsuan Lin,  You-Sheng Lin,  Fenglai Liu,  Kuan-Yu Liu,  
 M. Loipersberger,  A. Luenser,  A. Manjanath,  P. Manohar,  E. Mansoor,  
 S. F. Manzer,  Shan-Ping Mao,  A. V. Marenich,  T. Markovich,  S. Mason,  
 S. A. Maurer,  P. F. McLaughlin,  M. F. S. J. Menger,  J.-M. Mewes,  
 S. A. Mewes,  P. Morgante,  J. W. Mullinax,  T. S. Nguyen-Beck,  
 K. J. Oosterbaan,  G. Paran,  Alexander C. Paul,  Suranjan K. Paul,  
 F. Pavosevic,  Zheng Pei,  S. Prager,  E. I. Proynov,  E. Ramos,  B. Rana,  
 A. E. Rask,  A. Rettig,  R. M. Richard,  F. Rob,  E. Rossomme,  T. Scheele,  
 M. Scheurer,  M. Schneider,  N. Sergueev,  S. M. Sharada,  W. Skomorowski,  
 D. W. Small,  C. J. Stein,  Yu-Chuan Su,  E. J. Sundstrom,  Zhen Tao,  
 J. Thirman,  T. Tsuchimochi,  N. M. Tubman,  S. P. Veccham,  O. Vydrov,  
 J. Wenzel,  J. Witte,  A. Yamada,  Kun Yao,  S. Yeganeh,  S. R. Yost,  
 A. Zech,  Igor Ying Zhang,  Xing Zhang,  Yu Zhang,  D. Zuev,  
 A. Aspuru-Guzik,  A. T. Bell,  N. A. Besley,  K. B. Bravaya,  B. R. Brooks,  
 D. Casanova,  Jeng-Da Chai,  S. Coriani,  C. J. Cramer,  
 A. E. DePrince, III,  R. A. DiStasio Jr.,  A. Dreuw,  B. D. Dunietz,  
 T. R. Furlani,  W. A. Goddard III,  S. Grimme,  S. Hammes-Schiffer,  
 T. Head-Gordon,  W. J. Hehre,  Chao-Ping Hsu,  T.-C. Jagau,  Yousung Jung,  
 A. Klamt,  Jing Kong,  D. S. Lambrecht,  WanZhen Liang,  N. J. Mayhall,  
 C. W. McCurdy,  J. B. Neaton,  C. Ochsenfeld,  J. A. Parkhill,  R. Peverati,  
 V. A. Rassolov,  Yihan Shao,  L. V. Slipchenko,  T. Stauch,  R. P. Steele,  
 J. E. Subotnik,  A. J. W. Thom,  A. Tkatchenko,  D. G. Truhlar,  
 T. Van Voorhis,  T. A. Wesolowski,  K. B. Whaley,  H. L. Woodcock III,  
 P. M. Zimmerman,  S. Faraji,  P. M. W. Gill,  M. Head-Gordon,  
 J. M. Herbert,  A. I. Krylov

 Contributors to earlier versions of Q-Chem not listed above: 
 R. D. Adamson,  B. Austin,  R. Baer,  J. Baker,  G. J. O. Beran,  
 K. Brandhorst,  S. T. Brown,  E. F. C. Byrd,  A. K. Chakraborty,  
 G. K. L. Chan,  Chun-Min Chang,  Yunqing Chen,  C.-L. Cheng,  
 Siu Hung Chien,  D. M. Chipman,  D. L. Crittenden,  H. Dachsel,  
 R. J. Doerksen,  A. D. Dutoi,  R. G. Edgar,  J. Fosso-Tande,  
 L. Fusti-Molnar,  D. Ghosh,  A. Ghysels,  A. Golubeva-Zadorozhnaya,  
 J. Gonthier,  M. S. Gordon,  S. R. Gwaltney,  G. Hawkins,  J. E. Herr,  
 A. Heyden,  S. Hirata,  E. G. Hohenstein,  G. Kedziora,  F. J. Keil,  
 C. Kelley,  Jihan Kim,  R. A. King,  R. Z. Khaliullin,  P. P. Korambath,  
 W. Kurlancheek,  A. Laurent,  A. M. Lee,  M. S. Lee,  S. V. Levchenko,  
 Ching Yeh Lin,  D. Liotard,  E. Livshits,  R. C. Lochan,  I. Lotan,  
 L. A. Martinez-Martinez,  P. E. Maslen,  N. Nair,  D. P. O'Neill,  
 D. Neuhauser,  E. Neuscamman,  C. M. Oana,  R. Olivares-Amaya,  R. Olson,  
 T. M. Perrine,  B. Peters,  P. A. Pieniazek,  A. Prociuk,  Y. M. Rhee,  
 J. Ritchie,  M. A. Rohrdanz,  E. Rosta,  N. J. Russ,  H. F. Schaefer III,  
 M. W. Schmidt,  N. E. Schultz,  S. Sharma,  N. Shenvi,  C. D. Sherrill,  
 A. C. Simmonett,  A. Sodt,  T. Stein,  D. Stuck,  K. S. Thanthiriwatte,  
 V. Vanovschi,  L. Vogt,  Tao Wang,  A. Warshel,  M. A. Watson,  
 C. F. Williams,  Q. Wu,  X. Xu,  Jun Yang,  W. Zhang,  Yan Zhao

 Please cite Q-Chem as follows:
 Y. Shao et al., Mol. Phys. 113, 184-215 (2015)
 DOI: 10.1080/00268976.2014.952696

 Q-Chem 5.4.0 for Intel X86 EM64T Linux

 Parts of Q-Chem use Armadillo 9.800.1 (Horizon Scraper).
 http://arma.sourceforge.net/

 Q-Chem begins on Tue Dec  5 16:50:41 2023  

 Host: 
0

     Scratch files written to /local_scratch/pbs.1652979[0].pbs02/pyqchem_1059338//
 May1621 |scratch|qcdevops|jenkins|workspace|build_RNUM 6351   
 Parallel job on  1  processors
 Processing $rem in /software/commercial/MERCURY/QChem/5.4.0/config/preferences:
 Processing $rem in /home/jeanettepatel/.qchemrc:

 Checking the input file for inconsistencies... 	...done.

--------------------------------------------------------------
User input:
--------------------------------------------------------------
$molecule
0 1
C	        2.9995390000        -0.1137640000         0.0928830000
C	        2.3110380000         0.4653720000         0.2500900000
H	        1.5702330000         1.0764430000         0.4118380000
C	        4.2298570000        -1.1423380000        -0.1801670000
H	        4.2428250000        -1.9442470000         0.5637110000
H	        5.1919520000        -0.6240800000        -0.1317760000
H	        4.1455940000        -1.6025120000        -1.1689890000
H	       -0.3820270000         3.1368500000        -0.1256620000
O	       -0.4860440000         2.2923080000         0.3231290000
C	       -1.2836810000         1.4224860000        -0.4964050000
C	       -1.6050370000         0.1703110000         0.3047000000
C	       -2.4413690000        -0.8406240000        -0.4886700000
C	       -2.7622640000        -2.1040760000         0.3161280000
H	       -0.7325990000         1.1563360000        -1.4087710000
H	       -2.2103900000         1.9298260000        -0.7950950000
H	       -0.6658430000        -0.2952270000         0.6220900000
H	       -2.1363580000         0.4645300000         1.2168550000
H	       -1.9043390000        -1.1186390000        -1.4036860000
H	       -3.3765290000        -0.3681970000        -0.8142640000
H	       -1.8460430000        -2.6159220000         0.6261390000
H	       -3.3278750000        -1.8621560000         1.2213900000
H	       -3.3571800000        -2.8101730000        -0.2696650000
$end
$rem
jobtype polarizability
method tpss
basis 6-311++g**
thresh 14
scf_convergence 9
scf_algorithm diis
max_scf_cycles 200
gui 2
set_iter 30
RPA False
mem_total 40000
mem_static 2000
n_frozen_virtual 0
mom_start False
skip_scfman False
scf_guess_mix False
symmetry False
sym_ignore True
sym_tol 5
dft_d d3
xc_smart_grid True
xc_grid 000099000590
$end

--------------------------------------------------------------
 Adding empirical dispersion correction 
 ----------------------------------------------------------------
 Doing -D3(OP) with
 s6  =   1.00000
 s8  =   0.51581
 a1  =   0.57500
 a2  =   3.00000
 pow =   14.00000
 -D3 energy without 3body term =     -0.0094422232 hartrees
 ----------------------------------------------------------------
             Standard Nuclear Orientation (Angstroms)
    I     Atom           X                Y                Z
 ----------------------------------------------------------------
    1      C       2.9995390000    -0.1137640000     0.0928830000
    2      C       2.3110380000     0.4653720000     0.2500900000
    3      H       1.5702330000     1.0764430000     0.4118380000
    4      C       4.2298570000    -1.1423380000    -0.1801670000
    5      H       4.2428250000    -1.9442470000     0.5637110000
    6      H       5.1919520000    -0.6240800000    -0.1317760000
    7      H       4.1455940000    -1.6025120000    -1.1689890000
    8      H      -0.3820270000     3.1368500000    -0.1256620000
    9      O      -0.4860440000     2.2923080000     0.3231290000
   10      C      -1.2836810000     1.4224860000    -0.4964050000
   11      C      -1.6050370000     0.1703110000     0.3047000000
   12      C      -2.4413690000    -0.8406240000    -0.4886700000
   13      C      -2.7622640000    -2.1040760000     0.3161280000
   14      H      -0.7325990000     1.1563360000    -1.4087710000
   15      H      -2.2103900000     1.9298260000    -0.7950950000
   16      H      -0.6658430000    -0.2952270000     0.6220900000
   17      H      -2.1363580000     0.4645300000     1.2168550000
   18      H      -1.9043390000    -1.1186390000    -1.4036860000
   19      H      -3.3765290000    -0.3681970000    -0.8142640000
   20      H      -1.8460430000    -2.6159220000     0.6261390000
   21      H      -3.3278750000    -1.8621560000     1.2213900000
   22      H      -3.3571800000    -2.8101730000    -0.2696650000
 ----------------------------------------------------------------
 Nuclear Repulsion Energy =         343.37438697 hartrees
 There are       32 alpha and       32 beta electrons
 Requested basis set is 6-311++G(d,p)
 There are 118 shells and 274 basis functions

 Total QAlloc Memory Limit  40000 MB
 Mega-Array Size      1956 MB
 MEM_STATIC part      2000 MB
 A cutoff of  1.0D-14 yielded   6032 shell pairs
 There are     32194 function pairs (     33983 Cartesian)
 Smallest overlap matrix eigenvalue = 1.13E-07
 Linear dependence detected in AO basis
 Tighter screening thresholds may be required for diffuse basis sets
 Use S2THRESH > 14 and THRESH = 14 in case of SCF convergence issues
 Number of orthogonalized atomic orbitals = 273
 Maximum deviation from orthogonality = 2.452E-11

 Scale SEOQF with 1.000000e-02/1.000000e-01/1.000000e-01

 Standard Electronic Orientation quadrupole field applied
 Nucleus-field energy     =     0.0000000095 hartrees
 Guess from superposition of atomic densities
 Warning:  Energy on first SCF cycle will be non-variational
 SAD guess density has 64.000000 electrons

 -----------------------------------------------------------------------
  General SCF calculation program by
  Eric Jon Sundstrom, Paul Horn, Yuezhi Mao, Dmitri Zuev, Alec White,
  David Stuck, Shaama M.S., Shane Yost, Joonho Lee, David Small,
  Daniel Levine, Susi Lehtola, Hugh Burton, Evgeny Epifanovsky,
  Bang C. Huynh
 -----------------------------------------------------------------------
 Exchange:  TPSS      Correlation:  TPSS
 Using Euler-Maclaurin-Lebedev (99,590) quadrature formula
 Dispersion:   Grimme D3
 using 12 threads for integral computing
 -------------------------------------------------------
 OpenMP Integral computing Module                
 Release: version 1.0, May 2013, Q-Chem Inc. Pittsburgh 
 -------------------------------------------------------
 A restricted SCF calculation will be
 performed using DIIS
 SCF converges when DIIS error is below 1.0e-09
 ---------------------------------------
  Cycle       Energy         DIIS error
 ---------------------------------------
    1    -351.3429976968      3.81e-02  
    2    -349.7149954340      7.14e-03  
    3    -349.3949481699      9.08e-03  
    4    -350.1547876782      1.29e-03  
    5    -350.1630881509      7.72e-04  
    6    -350.1671186174      1.76e-04  
    7    -350.1673617867      5.15e-05  
    8    -350.1673833949      8.05e-06  
    9    -350.1673837787      4.82e-06  
   10    -350.1673839796      9.85e-07  
   11    -350.1673839875      3.06e-07  
   12    -350.1673839883      7.47e-08  
   13    -350.1673839883      1.20e-08  
   14    -350.1673839883      4.60e-09  
   15    -350.1673839883      1.22e-09  
   16    -350.1673839883      2.02e-10  Convergence criterion met
 ---------------------------------------
 SCF time:   CPU 560.66s  wall 48.00s 
 SCF   energy in the final basis set =     -350.1673839883
 Total energy in the final basis set =     -350.1673839883
 
 --------------------------------------------------------------
 
                    Orbital Energies (a.u.)
 --------------------------------------------------------------
 
 Alpha MOs
 -- Occupied --
-18.8819 -10.0317 -10.0030  -9.9840  -9.9787  -9.9747  -9.9176  -9.8770
 -0.9557  -0.7388  -0.7133  -0.6683  -0.6431  -0.5794  -0.5358  -0.4700
 -0.4635  -0.4389  -0.3937  -0.3908  -0.3754  -0.3753  -0.3716  -0.3620
 -0.3307  -0.3193  -0.3018  -0.2949  -0.2889  -0.2872  -0.2863  -0.2358
 -- Virtual --
 -0.0166  -0.0093  -0.0033   0.0072   0.0143   0.0234   0.0324   0.0342
  0.0401   0.0463   0.0519   0.0568   0.0608   0.0676   0.0747   0.0801
  0.0873   0.0905   0.0919   0.0931   0.0981   0.1052   0.1142   0.1154
  0.1184   0.1219   0.1303   0.1314   0.1371   0.1419   0.1462   0.1484
  0.1519   0.1574   0.1606   0.1649   0.1687   0.1706   0.1738   0.1767
  0.1823   0.1864   0.1893   0.1906   0.1988   0.2094   0.2114   0.2168
  0.2246   0.2267   0.2365   0.2380   0.2510   0.2559   0.2662   0.2733
  0.2815   0.2872   0.2921   0.2996   0.3311   0.3363   0.3388   0.3553
  0.3701   0.4183   0.4290   0.4359   0.4396   0.4489   0.4682   0.4800
  0.4925   0.5064   0.5192   0.5380   0.5447   0.5535   0.5595   0.5808
  0.6164   0.6200   0.6245   0.6332   0.6352   0.6480   0.6506   0.6574
  0.6643   0.6722   0.6838   0.6849   0.6878   0.7169   0.7199   0.7324
  0.7497   0.7543   0.7602   0.7842   0.8412   0.8590   0.8851   0.9205
  0.9504   0.9611   0.9677   0.9882   1.0160   1.0436   1.0485   1.0747
  1.1243   1.1394   1.1496   1.1889   1.2136   1.2232   1.2419   1.2576
  1.2617   1.3656   1.3706   1.3836   1.4397   1.4423   1.4519   1.4644
  1.4926   1.4982   1.5304   1.5418   1.5487   1.5578   1.5618   1.5674
  1.5783   1.5925   1.5972   1.6513   1.6560   1.6632   1.6667   1.6691
  1.6759   1.6974   1.7139   1.7206   1.7238   1.7294   1.7367   1.7758
  1.8121   1.8448   1.8873   1.9472   1.9593   1.9659   2.0252   2.0368
  2.0525   2.0586   2.0934   2.1025   2.1500   2.1831   2.1906   2.2065
  2.2626   2.2630   2.2885   2.3435   2.3475   2.3886   2.4477   2.4675
  2.4872   2.4957   2.4971   2.5086   2.5192   2.5348   2.5431   2.5835
  2.5869   2.5977   2.6139   2.6532   2.6588   2.6934   2.6959   2.7427
  2.7488   2.7564   2.7789   2.8009   2.8301   2.8402   2.8670   2.8752
  2.8914   2.9216   2.9306   2.9738   3.0073   3.0290   3.0378   3.0742
  3.1132   3.1283   3.1512   3.1910   3.2560   3.2798   3.4087   3.5410
  3.6842   3.7961   3.8097   3.8102   3.8106   3.8286   3.8562   3.8657
  3.8789   3.9658   4.0931   4.1984   4.3178   4.5914   5.0706   5.3583
  5.6181  23.8353  23.8696  23.9097  23.9147  23.9778  24.5683  25.7304
 49.9442
 --------------------------------------------------------------
 
          Ground-State Mulliken Net Atomic Charges

     Atom                 Charge (a.u.)
  ----------------------------------------
      1 C                     0.277982
      2 C                    -0.057975
      3 H                     0.168386
      4 C                    -0.877228
      5 H                     0.172357
      6 H                     0.173085
      7 H                     0.170458
      8 H                     0.251595
      9 O                    -0.259307
     10 C                    -0.556825
     11 C                    -0.116507
     12 C                    -0.088302
     13 C                    -0.717406
     14 H                     0.179656
     15 H                     0.167301
     16 H                     0.127956
     17 H                     0.184946
     18 H                     0.152040
     19 H                     0.148016
     20 H                     0.166552
     21 H                     0.162793
     22 H                     0.170426
  ----------------------------------------
  Sum of atomic charges =     0.000000

 -----------------------------------------------------------------
                    Cartesian Multipole Moments
 -----------------------------------------------------------------
    Charge (ESU x 10^10)
                -0.0000
    Dipole Moment (Debye)
         X      -0.5600      Y       0.0090      Z      -1.5103
       Tot       1.6108
    Quadrupole Moments (Debye-Ang)
        XX     -46.8929     XY      -3.6723     YY     -46.5127
        XZ      -0.0143     YZ      -3.0748     ZZ     -52.7139
    Octopole Moments (Debye-Ang^2)
       XXX      22.4524    XXY      -8.1627    XYY       2.7191
       YYY      32.6528    XXZ      -2.5764    XYZ       2.0436
       YYZ      -9.2978    XZZ      -0.0440    YZZ       1.0526
       ZZZ      -0.0601
    Hexadecapole Moments (Debye-Ang^3)
      XXXX   -1972.7569   XXXY     -66.2729   XXYY    -456.8047
      XYYY     -24.4178   YYYY    -593.5704   XXXZ     -12.3751
      XXYZ       3.6950   XYYZ      10.1985   YYYZ     -17.5933
      XXZZ    -378.9195   XYZZ      -6.0778   YYZZ    -140.2830
      XZZZ      -6.9066   YZZZ       4.6963   ZZZZ    -136.9539
 -----------------------------------------------------------------
 <<<<<<<<<<<<<<<<<<<<<<<<<<<<<<<<<<<<<<<<<<<<<<<<<<<<<<<<<<<<<<<<<<<<<<<<<<<<<
  Calculating the polarizability using responseman/libresponse.
 =============================================================================
  responseman begin
 -----------------------------------------------------------------------------
  All stored options:
   _almo_do_virt_relocalization: 0
   _almo_project_occs: 0
   _almo_project_virts: 1
   _almo_use_frgm_coefs: 0
   _do_compute_generalized_density: 1
   _do_orthogonalization_canonical: 0
   _frgm_response_idx: 0
   _mask_dg_ao: 0
   _mask_ediff_mo: 0
   _mask_form_results_mo: 0
   _mask_ints_mnov_ao: 0
   _mask_j_ao: 0
   _mask_k_ao: 0
   _mask_operator_ao: 0
   _mask_product_mo: 0
   _mask_rhsvec_mo: 0
   _mask_rspvec_guess_mo: 0
   _mask_rspvec_mo: 0
   conv: 8
   diis_start: 1
   diis_vectors: 7
   dump_ao_integrals: 0
   force_nonorthogonal: 0
   force_not_nonorthogonal: 0
   hamiltonian: rpa
   integral_engine: libint
   maxiter: 60
   memory: 2000
   order: linear
   print_level: 2
   read: 0
   rhf_as_uhf: 0
   run_type: single
   save: 0
   solver: diis
   spin: singlet
 -----------------------------------------------------------------------------
  Settings
   nocc_alph: 32
   nvirt_alph: 241
   nocc_beta: 32
   nvirt_beta: 241
   nov_alph: 7712
   nov_beta: 7712
   Orbital Hessian: RPA
   Operator spin type: singlet
   Max. iter: 60
   Convergence threshold: 10^-8
   Frequencies: 0 
 -----------------------------------------------------------------------------
  Uncoupled result (initial guess):
  [   1 :     dipole 1 ,   1 :     dipole 1 ]:   123.808897359527733784
  [   1 :     dipole 1 ,   2 :     dipole 2 ]:    -7.615282931856855342
  [   1 :     dipole 1 ,   3 :     dipole 3 ]:    -0.946333247442283421
  [   2 :     dipole 2 ,   1 :     dipole 1 ]:    -7.615282931856854454
  [   2 :     dipole 2 ,   2 :     dipole 2 ]:   123.334669896597645788
  [   2 :     dipole 2 ,   3 :     dipole 3 ]:     2.097936247095845363
  [   3 :     dipole 3 ,   1 :     dipole 1 ]:    -0.946333247442284087
  [   3 :     dipole 3 ,   2 :     dipole 2 ]:     2.097936247095845363
  [   3 :     dipole 3 ,   3 :     dipole 3 ]:   114.692644891768338766
 -----------------------------------------------------------------------------
  iteration         rmsd        enorm
 -----------------------------------------------------------------------------
  Operator: dipole / component: 1 / origin: zero (0, 0, 0)
          1 9.396567e+00 9.396567e+00
          2 1.128761e+01 1.128761e+01
          3 8.028180e+00 2.785408e+00
          4 1.854391e+00 3.250076e-01
          5 2.728037e-01 1.432199e-01
          6 1.017273e-01 2.239008e-02
          7 1.585192e-02 6.553302e-03
          8 4.670282e-03 1.543811e-03
          9 1.023880e-03 3.740318e-04
         10 2.350991e-04 1.000508e-04
         11 7.234237e-05 4.226618e-05
         12 3.504273e-05 1.862074e-05
         13 1.308075e-05 3.846465e-06
         14 3.926533e-06 2.823843e-06
         15 1.967176e-06 3.313324e-07
         16 2.141485e-07 9.175651e-08
         17 7.028199e-08 4.597566e-08
         18 3.096239e-08 1.229102e-08
         19 8.330351e-09 3.179682e-09
  Operator: dipole / component: 2 / origin: zero (0, 0, 0)
          1 8.674746e+00 8.674746e+00
          2 1.015625e+01 1.015625e+01
          3 7.350735e+00 2.507755e+00
          4 1.684354e+00 3.763742e-01
          5 2.782474e-01 1.260636e-01
          6 9.210482e-02 2.445013e-02
          7 1.837216e-02 7.364388e-03
          8 5.051447e-03 1.362942e-03
          9 9.809970e-04 4.719363e-04
         10 3.104661e-04 1.364448e-04
         11 9.003220e-05 4.189382e-05
         12 3.678093e-05 2.223492e-05
         13 1.661256e-05 8.136036e-06
         14 6.863315e-06 3.557504e-06
         15 2.444914e-06 3.984833e-07
         16 3.228149e-07 1.993462e-07
         17 1.213652e-07 4.444893e-08
         18 3.446034e-08 1.914256e-08
         19 1.344254e-08 6.864418e-09
  Operator: dipole / component: 3 / origin: zero (0, 0, 0)
          1 1.069646e+01 1.069646e+01
          2 1.341805e+01 1.341805e+01
          3 1.015297e+01 3.754765e+00
          4 2.508426e+00 3.233961e-01
          5 2.283585e-01 8.497948e-02
          6 5.585231e-02 1.743975e-02
          7 1.349876e-02 6.084615e-03
          8 4.166586e-03 9.762781e-04
          9 6.873714e-04 3.562535e-04
         10 2.287271e-04 9.867744e-05
         11 6.634176e-05 1.954941e-05
         12 1.361706e-05 7.244158e-06
         13 8.072898e-06 6.249758e-06
         14 4.375795e-06 8.430350e-07
         15 5.795714e-07 2.621266e-07
         16 2.224963e-07 1.302757e-07
         17 8.817294e-08 2.174065e-08
         18 1.754383e-08 8.795455e-09
 ----------------------------------------------------------------------------- 
  Final result: 
  [   1 :     dipole 1 ,   1 :     dipole 1 ]:    91.063229506678453617
  [   1 :     dipole 1 ,   2 :     dipole 2 ]:    -1.998921900469159407
  [   1 :     dipole 1 ,   3 :     dipole 3 ]:    -0.796253871257315282
  [   2 :     dipole 2 ,   1 :     dipole 1 ]:    -1.998921901705866588
  [   2 :     dipole 2 ,   2 :     dipole 2 ]:    90.244017361295917112
  [   2 :     dipole 2 ,   3 :     dipole 3 ]:     0.039099839518758728
  [   3 :     dipole 3 ,   1 :     dipole 1 ]:    -0.796253869482850707
  [   3 :     dipole 3 ,   2 :     dipole 2 ]:     0.039099835439362685
  [   3 :     dipole 3 ,   3 :     dipole 3 ]:    74.737953268140842056
  time (s):             291.8775
 -----------------------------------------------------------------------------
  responseman end
 =============================================================================
 -----------------------------------------------------------------------------
  Polarizability tensor      [a.u.]
     91.0632295     -1.9989219     -0.7962539
     -1.9989219     90.2440174      0.0390998
     -0.7962539      0.0390998     74.7379533
  Principal components       [a.u.]
     74.6989879     88.6291598     92.7170524
  Isotropic polarizability   [a.u.]
     85.3484000
  Anisotropic polarizability [a.u.]
     16.3617115
  Polarizability tensor      [angstrom^3]
     13.4941784     -0.2962097     -0.1179927
     -0.2962097     13.3727837      0.0057940
     -0.1179926      0.0057940     11.0750220
  Principal components       [angstrom^3]
     11.0692480     13.1334865     13.7392497
  Isotropic polarizability   [angstrom^3]
     12.6473280
  Anisotropic polarizability [angstrom^3]
      2.4245555
  Orientation
      0.0490630     -0.6276592      0.7769406
      0.0037968     -0.7777546     -0.6285566
      0.9987885      0.0337887     -0.0357759
 >>>>>>>>>>>>>>>>>>>>>>>>>>>>>>>>>>>>>>>>>>>>>>>>>>>>>>>>>>>>>>>>>>>>>>>>>>>>>
 Total job time:  341.47s(wall), 4012.98s(cpu) 
 Tue Dec  5 16:56:22 2023

        *************************************************************
        *                                                           *
        *  Thank you very much for using Q-Chem.  Have a nice day.  *
        *                                                           *
        *************************************************************


0 sent ACK to 0 
now end server 0 ... 
