Process 0 of 1 is on skystd40.palmetto.clemson.edu - thread support 0
initial socket setup ...start
initial socket setup ...done 
now start server 0 ... 
                  Welcome to Q-Chem
     A Quantum Leap Into The Future Of Chemistry


 Q-Chem 5.4, Q-Chem, Inc., Pleasanton, CA (2021)

 License issued to: SRG Carol Parish, MERCURY Consortium

 E. Epifanovsky,  A. T. B. Gilbert,  Xintian Feng,  Joonho Lee,  Yuezhi Mao,  
 N. Mardirossian,  P. Pokhilko,  A. White,  M. Wormit,  M. P. Coons,  
 A. L. Dempwolff,  Zhengting Gan,  D. Hait,  P. R. Horn,  L. D. Jacobson,  
 I. Kaliman,  J. Kussmann,  A. W. Lange,  Ka Un Lao,  D. S. Levine,  Jie Liu,  
 S. C. McKenzie,  A. F. Morrison,  K. Nanda,  F. Plasser,  D. R. Rehn,  
 M. L. Vidal,  Zhi-Qiang You,  Ying Zhu,  B. Alam,  B. Albrecht,  
 A. Aldossary,  E. Alguire,  J. H. Andersen,  D. Barton,  K. Begam,  A. Behn,  
 Y. A. Bernard,  E. J. Berquist,  H. Burton,  A. Carreras,  K. Carter-Fenk,  
 R. Chakraborty,  A. D. Chien,  K. D. Closser,  V. Cofer-Shabica,  
 S. Dasgupta,  Jia Deng,  M. de Wergifosse,  M. Diedenhofen,  Hainam Do,  
 S. Ehlert,  Po-Tung Fang,  S. Fatehi,  Qingguo Feng,  J. Gayvert,  
 Qinghui Ge,  G. Gidofalvi,  M. Goldey,  J. Gomes,  C. Gonzalez-Espinoza,  
 S. Gulania,  A. Gunina,  M. W. D. Hanson-Heine,  P. H. P. Harbach,  
 A. W. Hauser,  M. F. Herbst,  M. Hernandez Vera,  M. Hodecker,  
 Z. C. Holden,  S. Houck,  Xunkun Huang,  Kerwin Hui,  B. C. Huynh,  
 M. Ivanov,  Hyunjun Ji,  Hanjie Jiang,  B. Kaduk,  S. Kaehler,  
 K. Khistyaev,  Jaehoon Kim,  P. Klunzinger,  Z. Koczor-Benda,  
 Joong Hoon Koh,  D. Kosenkov,  L. Koulias,  T. Kowalczyk,  C. M. Krauter,  
 K. Kue,  A. Kunitsa,  T. Kus,  A. Landau,  K. V. Lawler,  D. Lefrancois,  
 S. Lehtola,  Rain Li,  Yi-Pei Li,  Jiashu Liang,  M. Liebenthal,  
 Hung-Hsuan Lin,  You-Sheng Lin,  Fenglai Liu,  Kuan-Yu Liu,  
 M. Loipersberger,  A. Luenser,  A. Manjanath,  P. Manohar,  E. Mansoor,  
 S. F. Manzer,  Shan-Ping Mao,  A. V. Marenich,  T. Markovich,  S. Mason,  
 S. A. Maurer,  P. F. McLaughlin,  M. F. S. J. Menger,  J.-M. Mewes,  
 S. A. Mewes,  P. Morgante,  J. W. Mullinax,  T. S. Nguyen-Beck,  
 K. J. Oosterbaan,  G. Paran,  Alexander C. Paul,  Suranjan K. Paul,  
 F. Pavosevic,  Zheng Pei,  S. Prager,  E. I. Proynov,  E. Ramos,  B. Rana,  
 A. E. Rask,  A. Rettig,  R. M. Richard,  F. Rob,  E. Rossomme,  T. Scheele,  
 M. Scheurer,  M. Schneider,  N. Sergueev,  S. M. Sharada,  W. Skomorowski,  
 D. W. Small,  C. J. Stein,  Yu-Chuan Su,  E. J. Sundstrom,  Zhen Tao,  
 J. Thirman,  T. Tsuchimochi,  N. M. Tubman,  S. P. Veccham,  O. Vydrov,  
 J. Wenzel,  J. Witte,  A. Yamada,  Kun Yao,  S. Yeganeh,  S. R. Yost,  
 A. Zech,  Igor Ying Zhang,  Xing Zhang,  Yu Zhang,  D. Zuev,  
 A. Aspuru-Guzik,  A. T. Bell,  N. A. Besley,  K. B. Bravaya,  B. R. Brooks,  
 D. Casanova,  Jeng-Da Chai,  S. Coriani,  C. J. Cramer,  
 A. E. DePrince, III,  R. A. DiStasio Jr.,  A. Dreuw,  B. D. Dunietz,  
 T. R. Furlani,  W. A. Goddard III,  S. Grimme,  S. Hammes-Schiffer,  
 T. Head-Gordon,  W. J. Hehre,  Chao-Ping Hsu,  T.-C. Jagau,  Yousung Jung,  
 A. Klamt,  Jing Kong,  D. S. Lambrecht,  WanZhen Liang,  N. J. Mayhall,  
 C. W. McCurdy,  J. B. Neaton,  C. Ochsenfeld,  J. A. Parkhill,  R. Peverati,  
 V. A. Rassolov,  Yihan Shao,  L. V. Slipchenko,  T. Stauch,  R. P. Steele,  
 J. E. Subotnik,  A. J. W. Thom,  A. Tkatchenko,  D. G. Truhlar,  
 T. Van Voorhis,  T. A. Wesolowski,  K. B. Whaley,  H. L. Woodcock III,  
 P. M. Zimmerman,  S. Faraji,  P. M. W. Gill,  M. Head-Gordon,  
 J. M. Herbert,  A. I. Krylov

 Contributors to earlier versions of Q-Chem not listed above: 
 R. D. Adamson,  B. Austin,  R. Baer,  J. Baker,  G. J. O. Beran,  
 K. Brandhorst,  S. T. Brown,  E. F. C. Byrd,  A. K. Chakraborty,  
 G. K. L. Chan,  Chun-Min Chang,  Yunqing Chen,  C.-L. Cheng,  
 Siu Hung Chien,  D. M. Chipman,  D. L. Crittenden,  H. Dachsel,  
 R. J. Doerksen,  A. D. Dutoi,  R. G. Edgar,  J. Fosso-Tande,  
 L. Fusti-Molnar,  D. Ghosh,  A. Ghysels,  A. Golubeva-Zadorozhnaya,  
 J. Gonthier,  M. S. Gordon,  S. R. Gwaltney,  G. Hawkins,  J. E. Herr,  
 A. Heyden,  S. Hirata,  E. G. Hohenstein,  G. Kedziora,  F. J. Keil,  
 C. Kelley,  Jihan Kim,  R. A. King,  R. Z. Khaliullin,  P. P. Korambath,  
 W. Kurlancheek,  A. Laurent,  A. M. Lee,  M. S. Lee,  S. V. Levchenko,  
 Ching Yeh Lin,  D. Liotard,  E. Livshits,  R. C. Lochan,  I. Lotan,  
 L. A. Martinez-Martinez,  P. E. Maslen,  N. Nair,  D. P. O'Neill,  
 D. Neuhauser,  E. Neuscamman,  C. M. Oana,  R. Olivares-Amaya,  R. Olson,  
 T. M. Perrine,  B. Peters,  P. A. Pieniazek,  A. Prociuk,  Y. M. Rhee,  
 J. Ritchie,  M. A. Rohrdanz,  E. Rosta,  N. J. Russ,  H. F. Schaefer III,  
 M. W. Schmidt,  N. E. Schultz,  S. Sharma,  N. Shenvi,  C. D. Sherrill,  
 A. C. Simmonett,  A. Sodt,  T. Stein,  D. Stuck,  K. S. Thanthiriwatte,  
 V. Vanovschi,  L. Vogt,  Tao Wang,  A. Warshel,  M. A. Watson,  
 C. F. Williams,  Q. Wu,  X. Xu,  Jun Yang,  W. Zhang,  Yan Zhao

 Please cite Q-Chem as follows:
 Y. Shao et al., Mol. Phys. 113, 184-215 (2015)
 DOI: 10.1080/00268976.2014.952696

 Q-Chem 5.4.0 for Intel X86 EM64T Linux

 Parts of Q-Chem use Armadillo 9.800.1 (Horizon Scraper).
 http://arma.sourceforge.net/

 Q-Chem begins on Tue Dec  5 18:01:10 2023  

 Host: 
0

     Scratch files written to /local_scratch/pbs.1652979[0].pbs02/pyqchem_1059338//
 May1621 |scratch|qcdevops|jenkins|workspace|build_RNUM 6351   
 Parallel job on  1  processors
 Processing $rem in /software/commercial/MERCURY/QChem/5.4.0/config/preferences:
 Processing $rem in /home/jeanettepatel/.qchemrc:

 Checking the input file for inconsistencies... 	...done.

--------------------------------------------------------------
User input:
--------------------------------------------------------------
$molecule
0 1
C	        3.2145940000        -0.2935550000         0.0451550000
C	        2.1569630000         0.5949040000         0.2851840000
H	        1.2929380000         1.3048090000         0.4721650000
C	        4.2298570000        -1.1423380000        -0.1801670000
H	        4.2428250000        -1.9442470000         0.5637110000
H	        5.1919520000        -0.6240800000        -0.1317760000
H	        4.1455940000        -1.6025120000        -1.1689890000
H	       -0.3820270000         3.1368500000        -0.1256620000
O	       -0.4860440000         2.2923080000         0.3231290000
C	       -1.2836810000         1.4224860000        -0.4964050000
C	       -1.6050370000         0.1703110000         0.3047000000
C	       -2.4413690000        -0.8406240000        -0.4886700000
C	       -2.7622640000        -2.1040760000         0.3161280000
H	       -0.7325990000         1.1563360000        -1.4087710000
H	       -2.2103900000         1.9298260000        -0.7950950000
H	       -0.6658430000        -0.2952270000         0.6220900000
H	       -2.1363580000         0.4645300000         1.2168550000
H	       -1.9043390000        -1.1186390000        -1.4036860000
H	       -3.3765290000        -0.3681970000        -0.8142640000
H	       -1.8460430000        -2.6159220000         0.6261390000
H	       -3.3278750000        -1.8621560000         1.2213900000
H	       -3.3571800000        -2.8101730000        -0.2696650000
$end
$rem
jobtype polarizability
method tpss
basis 6-311++g**
thresh 14
scf_convergence 9
scf_algorithm diis
max_scf_cycles 200
gui 2
set_iter 30
RPA False
mem_total 40000
mem_static 2000
n_frozen_virtual 0
mom_start False
skip_scfman False
scf_guess_mix False
symmetry False
sym_ignore True
sym_tol 5
dft_d d3
xc_smart_grid True
xc_grid 000099000590
$end

--------------------------------------------------------------
 Adding empirical dispersion correction 
 ----------------------------------------------------------------
 Doing -D3(OP) with
 s6  =   1.00000
 s8  =   0.51581
 a1  =   0.57500
 a2  =   3.00000
 pow =   14.00000
 -D3 energy without 3body term =     -0.0094219274 hartrees
 ----------------------------------------------------------------
             Standard Nuclear Orientation (Angstroms)
    I     Atom           X                Y                Z
 ----------------------------------------------------------------
    1      C       3.2145940000    -0.2935550000     0.0451550000
    2      C       2.1569630000     0.5949040000     0.2851840000
    3      H       1.2929380000     1.3048090000     0.4721650000
    4      C       4.2298570000    -1.1423380000    -0.1801670000
    5      H       4.2428250000    -1.9442470000     0.5637110000
    6      H       5.1919520000    -0.6240800000    -0.1317760000
    7      H       4.1455940000    -1.6025120000    -1.1689890000
    8      H      -0.3820270000     3.1368500000    -0.1256620000
    9      O      -0.4860440000     2.2923080000     0.3231290000
   10      C      -1.2836810000     1.4224860000    -0.4964050000
   11      C      -1.6050370000     0.1703110000     0.3047000000
   12      C      -2.4413690000    -0.8406240000    -0.4886700000
   13      C      -2.7622640000    -2.1040760000     0.3161280000
   14      H      -0.7325990000     1.1563360000    -1.4087710000
   15      H      -2.2103900000     1.9298260000    -0.7950950000
   16      H      -0.6658430000    -0.2952270000     0.6220900000
   17      H      -2.1363580000     0.4645300000     1.2168550000
   18      H      -1.9043390000    -1.1186390000    -1.4036860000
   19      H      -3.3765290000    -0.3681970000    -0.8142640000
   20      H      -1.8460430000    -2.6159220000     0.6261390000
   21      H      -3.3278750000    -1.8621560000     1.2213900000
   22      H      -3.3571800000    -2.8101730000    -0.2696650000
 ----------------------------------------------------------------
 Nuclear Repulsion Energy =         337.94330872 hartrees
 There are       32 alpha and       32 beta electrons
 Requested basis set is 6-311++G(d,p)
 There are 118 shells and 274 basis functions

 Total QAlloc Memory Limit  40000 MB
 Mega-Array Size      1956 MB
 MEM_STATIC part      2000 MB
 A cutoff of  1.0D-14 yielded   6022 shell pairs
 There are     32126 function pairs (     33911 Cartesian)
 Smallest overlap matrix eigenvalue = 1.29E-06

 Scale SEOQF with 1.000000e-02/1.000000e-01/1.000000e-01

 Standard Electronic Orientation quadrupole field applied
 Nucleus-field energy     =     0.0000000096 hartrees
 Guess from superposition of atomic densities
 Warning:  Energy on first SCF cycle will be non-variational
 SAD guess density has 64.000000 electrons

 -----------------------------------------------------------------------
  General SCF calculation program by
  Eric Jon Sundstrom, Paul Horn, Yuezhi Mao, Dmitri Zuev, Alec White,
  David Stuck, Shaama M.S., Shane Yost, Joonho Lee, David Small,
  Daniel Levine, Susi Lehtola, Hugh Burton, Evgeny Epifanovsky,
  Bang C. Huynh
 -----------------------------------------------------------------------
 Exchange:  TPSS      Correlation:  TPSS
 Using Euler-Maclaurin-Lebedev (99,590) quadrature formula
 Dispersion:   Grimme D3
 using 12 threads for integral computing
 -------------------------------------------------------
 OpenMP Integral computing Module                
 Release: version 1.0, May 2013, Q-Chem Inc. Pittsburgh 
 -------------------------------------------------------
 A restricted SCF calculation will be
 performed using DIIS
 SCF converges when DIIS error is below 1.0e-09
 ---------------------------------------
  Cycle       Energy         DIIS error
 ---------------------------------------
    1    -351.1171886009      3.32e-02  
    2    -350.1559137329      5.32e-03  
    3    -349.9172016205      7.34e-03  
    4    -350.3862531139      2.12e-03  
    5    -350.4137614371      1.28e-03  
    6    -350.4290104828      4.15e-04  
    7    -350.4303706267      7.67e-05  
    8    -350.4304131434      2.63e-05  
    9    -350.4304192510      4.33e-06  
   10    -350.4304194039      1.68e-06  
   11    -350.4304194293      3.97e-07  
   12    -350.4304194307      7.62e-08  
   13    -350.4304194308      1.68e-08  
   14    -350.4304194308      6.83e-09  
   15    -350.4304194308      1.19e-09  
   16    -350.4304194308      2.67e-10  Convergence criterion met
 ---------------------------------------
 SCF time:   CPU 555.05s  wall 48.00s 
 SCF   energy in the final basis set =     -350.4304194308
 Total energy in the final basis set =     -350.4304194308
 
 --------------------------------------------------------------
 
                    Orbital Energies (a.u.)
 --------------------------------------------------------------
 
 Alpha MOs
 -- Occupied --
-18.8919 -10.0349 -10.0071 -10.0027 -10.0009  -9.9842  -9.9791  -9.9744
 -0.9650  -0.7409  -0.7396  -0.6700  -0.6063  -0.5814  -0.5368  -0.4809
 -0.4722  -0.4418  -0.4082  -0.4040  -0.4039  -0.3939  -0.3906  -0.3637
 -0.3317  -0.3230  -0.3020  -0.2950  -0.2920  -0.2443  -0.2012  -0.2011
 -- Virtual --
 -0.0222  -0.0199  -0.0154  -0.0094  -0.0041   0.0085   0.0141   0.0252
  0.0336   0.0374   0.0394   0.0454   0.0511   0.0579   0.0614   0.0698
  0.0723   0.0838   0.0860   0.0886   0.0943   0.0959   0.1050   0.1097
  0.1116   0.1200   0.1255   0.1296   0.1320   0.1351   0.1424   0.1445
  0.1477   0.1539   0.1554   0.1595   0.1615   0.1650   0.1699   0.1723
  0.1728   0.1782   0.1824   0.1859   0.1973   0.1975   0.2007   0.2081
  0.2126   0.2155   0.2218   0.2270   0.2333   0.2450   0.2644   0.2664
  0.2804   0.2879   0.2922   0.2967   0.3235   0.3349   0.3384   0.3537
  0.3559   0.3687   0.4160   0.4271   0.4300   0.4375   0.4416   0.4482
  0.4690   0.4760   0.4985   0.5146   0.5349   0.5524   0.5797   0.5871
  0.6052   0.6089   0.6117   0.6155   0.6223   0.6288   0.6392   0.6496
  0.6517   0.6555   0.6649   0.6722   0.6845   0.6876   0.6943   0.7009
  0.7194   0.7359   0.7399   0.7595   0.7686   0.7888   0.8441   0.8691
  0.8830   0.9205   0.9481   0.9535   0.9647   0.9776   0.9859   0.9994
  1.0348   1.0767   1.1237   1.1408   1.1952   1.1989   1.2033   1.2135
  1.2415   1.2560   1.2609   1.2974   1.3079   1.3807   1.4234   1.4256
  1.4374   1.4499   1.4599   1.4674   1.4945   1.5294   1.5386   1.5516
  1.5559   1.5624   1.5696   1.5761   1.5874   1.5945   1.5996   1.6063
  1.6485   1.6639   1.6701   1.6944   1.7073   1.7286   1.7340   1.7627
  1.7735   1.8093   1.8245   1.8451   1.8461   1.8856   1.9284   1.9663
  2.0247   2.0365   2.0493   2.0581   2.0704   2.1175   2.1281   2.1497
  2.1830   2.1916   2.2080   2.2837   2.3423   2.3472   2.3857   2.3907
  2.4102   2.4159   2.4677   2.4873   2.5069   2.5165   2.5350   2.5423
  2.5692   2.5862   2.5882   2.5914   2.6101   2.6354   2.6410   2.6567
  2.6800   2.6975   2.7409   2.7488   2.7807   2.8176   2.8374   2.8448
  2.8507   2.8594   2.8830   2.9163   2.9279   2.9472   2.9740   2.9996
  3.0112   3.0398   3.0846   3.1728   3.1969   3.2506   3.2805   3.3595
  3.4097   3.4867   3.7952   3.8096   3.8285   3.8493   3.8503   3.8523
  3.8644   3.8784   3.9669   4.0274   4.0937   4.1996   4.3181   5.0866
  5.3826   5.6110  23.5527  23.8341  23.8694  23.9143  23.9747  23.9781
 24.5496  49.9379
 --------------------------------------------------------------
 
          Ground-State Mulliken Net Atomic Charges

     Atom                 Charge (a.u.)
  ----------------------------------------
      1 C                     0.880611
      2 C                    -1.825967
      3 H                     0.315173
      4 C                     0.082259
      5 H                     0.188270
      6 H                     0.189696
      7 H                     0.185897
      8 H                     0.262710
      9 O                    -0.267588
     10 C                    -0.583806
     11 C                    -0.078069
     12 C                    -0.096627
     13 C                    -0.716591
     14 H                     0.188793
     15 H                     0.168161
     16 H                     0.116563
     17 H                     0.186034
     18 H                     0.154393
     19 H                     0.147619
     20 H                     0.169885
     21 H                     0.161998
     22 H                     0.170585
  ----------------------------------------
  Sum of atomic charges =     0.000000

 -----------------------------------------------------------------
                    Cartesian Multipole Moments
 -----------------------------------------------------------------
    Charge (ESU x 10^10)
                -0.0000
    Dipole Moment (Debye)
         X      -0.5216      Y      -0.1851      Z      -1.6209
       Tot       1.7129
    Quadrupole Moments (Debye-Ang)
        XX     -45.3987     XY      -6.3892     YY     -46.6607
        XZ      -0.6128     YZ      -2.7589     ZZ     -54.5878
    Octopole Moments (Debye-Ang^2)
       XXX      30.8327    XXY     -19.0216    XYY      -0.2812
       YYY      31.8053    XXZ      -5.4078    XYZ       2.3355
       YYZ      -9.2036    XZZ      -4.7242    YZZ       0.0101
       ZZZ      -1.9657
    Hexadecapole Moments (Debye-Ang^3)
      XXXX   -1937.5301   XXXY    -104.5087   XXYY    -466.2888
      XYYY     -30.0239   YYYY    -599.1825   XXXZ     -21.1032
      XXYZ       2.7299   XYYZ      10.1289   YYYZ     -18.3305
      XXZZ    -391.6100   XYZZ      -8.5575   YYZZ    -142.8546
      XZZZ     -10.2698   YZZZ       3.3214   ZZZZ    -143.6607
 -----------------------------------------------------------------
 <<<<<<<<<<<<<<<<<<<<<<<<<<<<<<<<<<<<<<<<<<<<<<<<<<<<<<<<<<<<<<<<<<<<<<<<<<<<<
  Calculating the polarizability using responseman/libresponse.
 =============================================================================
  responseman begin
 -----------------------------------------------------------------------------
  All stored options:
   _almo_do_virt_relocalization: 0
   _almo_project_occs: 0
   _almo_project_virts: 1
   _almo_use_frgm_coefs: 0
   _do_compute_generalized_density: 1
   _do_orthogonalization_canonical: 0
   _frgm_response_idx: 0
   _mask_dg_ao: 0
   _mask_ediff_mo: 0
   _mask_form_results_mo: 0
   _mask_ints_mnov_ao: 0
   _mask_j_ao: 0
   _mask_k_ao: 0
   _mask_operator_ao: 0
   _mask_product_mo: 0
   _mask_rhsvec_mo: 0
   _mask_rspvec_guess_mo: 0
   _mask_rspvec_mo: 0
   conv: 8
   diis_start: 1
   diis_vectors: 7
   dump_ao_integrals: 0
   force_nonorthogonal: 0
   force_not_nonorthogonal: 0
   hamiltonian: rpa
   integral_engine: libint
   maxiter: 60
   memory: 2000
   order: linear
   print_level: 2
   read: 0
   rhf_as_uhf: 0
   run_type: single
   save: 0
   solver: diis
   spin: singlet
 -----------------------------------------------------------------------------
  Settings
   nocc_alph: 32
   nvirt_alph: 242
   nocc_beta: 32
   nvirt_beta: 242
   nov_alph: 7744
   nov_beta: 7744
   Orbital Hessian: RPA
   Operator spin type: singlet
   Max. iter: 60
   Convergence threshold: 10^-8
   Frequencies: 0 
 -----------------------------------------------------------------------------
  Uncoupled result (initial guess):
  [   1 :     dipole 1 ,   1 :     dipole 1 ]:   190.738505790684428121
  [   1 :     dipole 1 ,   2 :     dipole 2 ]:   -55.076667017866299147
  [   1 :     dipole 1 ,   3 :     dipole 3 ]:   -13.083632534644118905
  [   2 :     dipole 2 ,   1 :     dipole 1 ]:   -55.076667017866299147
  [   2 :     dipole 2 ,   2 :     dipole 2 ]:   171.275842984165393545
  [   2 :     dipole 2 ,   3 :     dipole 3 ]:    12.191289624546653769
  [   3 :     dipole 3 ,   1 :     dipole 1 ]:   -13.083632534644117129
  [   3 :     dipole 3 ,   2 :     dipole 2 ]:    12.191289624546651993
  [   3 :     dipole 3 ,   3 :     dipole 3 ]:   125.736184997023144660
 -----------------------------------------------------------------------------
  iteration         rmsd        enorm
 -----------------------------------------------------------------------------
  Operator: dipole / component: 1 / origin: zero (0, 0, 0)
          1 6.858266e+01 6.858266e+01
          2 3.092635e+02 3.092635e+02
          3 2.575033e+02 6.590506e+00
          4 4.415501e+00 1.437135e+00
          5 1.064682e+00 3.675863e-01
          6 2.716615e-01 5.142335e-02
          7 3.763185e-02 1.531680e-02
          8 1.012835e-02 3.369244e-03
          9 2.556390e-03 1.204220e-03
         10 7.960058e-04 2.673423e-04
         11 2.060193e-04 9.103487e-05
         12 7.816872e-05 4.513432e-05
         13 3.596804e-05 1.639786e-05
         14 1.197983e-05 2.232534e-06
         15 1.685051e-06 8.508875e-07
         16 6.122433e-07 1.633129e-07
         17 1.302605e-07 8.838685e-08
         18 1.143378e-07 6.945939e-08
         19 6.834303e-08 2.120031e-08
         20 1.704060e-08 3.760106e-09
  Operator: dipole / component: 2 / origin: zero (0, 0, 0)
          1 6.130508e+01 6.130508e+01
          2 2.747932e+02 2.747932e+02
          3 2.295640e+02 6.763390e+00
          4 4.766834e+00 1.290456e+00
          5 9.745807e-01 3.213801e-01
          6 2.364019e-01 7.007884e-02
          7 4.944232e-02 1.479622e-02
          8 9.930429e-03 2.867268e-03
          9 2.426428e-03 1.527016e-03
         10 1.020061e-03 2.676856e-04
         11 3.220883e-04 2.361205e-04
         12 2.306235e-04 6.956016e-05
         13 5.643371e-05 3.817957e-05
         14 2.836671e-05 1.010347e-05
         15 7.216577e-06 1.722081e-06
         16 1.461529e-06 1.020574e-06
         17 7.305921e-07 1.635735e-07
         18 1.130204e-07 8.295280e-08
         19 8.128742e-08 3.729960e-08
         20 2.596406e-08 3.414526e-09
  Operator: dipole / component: 3 / origin: zero (0, 0, 0)
          1 2.052324e+01 2.052324e+01
          2 7.918447e+01 7.918447e+01
          3 7.079663e+01 1.050149e+01
          4 8.344967e+00 2.313044e+00
          5 1.590985e+00 2.059149e-01
          6 1.485841e-01 6.167620e-02
          7 3.843823e-02 8.064232e-03
          8 4.705898e-03 1.826573e-03
          9 1.404902e-03 8.778470e-04
         10 6.029105e-04 2.378662e-04
         11 2.394774e-04 1.640089e-04
         12 1.810450e-04 6.421664e-05
         13 5.721500e-05 2.488261e-05
         14 2.013656e-05 8.440109e-06
         15 5.829137e-06 1.509169e-06
         16 1.004710e-06 4.033408e-07
         17 2.387778e-07 1.029557e-07
         18 7.492405e-08 4.485982e-08
         19 4.483785e-08 3.002081e-08
         20 2.937225e-08 1.337257e-08
         21 1.274260e-08 3.289370e-09
 ----------------------------------------------------------------------------- 
  Final result: 
  [   1 :     dipole 1 ,   1 :     dipole 1 ]:   116.301856106932262946
  [   1 :     dipole 1 ,   2 :     dipole 2 ]:   -13.623357196260275970
  [   1 :     dipole 1 ,   3 :     dipole 3 ]:    -2.922444169722701268
  [   2 :     dipole 2 ,   1 :     dipole 1 ]:   -13.623357196302666949
  [   2 :     dipole 2 ,   2 :     dipole 2 ]:   103.486457138178991499
  [   2 :     dipole 2 ,   3 :     dipole 3 ]:     1.728483287162511983
  [   3 :     dipole 3 ,   1 :     dipole 1 ]:    -2.922444174884849755
  [   3 :     dipole 3 ,   2 :     dipole 2 ]:     1.728483291245240583
  [   3 :     dipole 3 ,   3 :     dipole 3 ]:    80.187185199618653542
  time (s):             315.7018
 -----------------------------------------------------------------------------
  responseman end
 =============================================================================
 -----------------------------------------------------------------------------
  Polarizability tensor      [a.u.]
    116.3018561    -13.6233572     -2.9224442
    -13.6233572    103.4864571      1.7284833
     -2.9224442      1.7284833     80.1871852
  Principal components       [a.u.]
     79.9305940     94.8398674    125.2050370
  Isotropic polarizability   [a.u.]
     99.9918328
  Anisotropic polarizability [a.u.]
     39.9631402
  Polarizability tensor      [angstrom^3]
     17.2341570     -2.0187733     -0.4330615
     -2.0187733     15.3351108      0.2561348
     -0.4330615      0.2561348     11.8825149
  Principal components       [angstrom^3]
     11.8444920     14.0538184     18.5534723
  Isotropic polarizability   [angstrom^3]
     14.8172609
  Anisotropic polarizability [angstrom^3]
      5.9219264
  Orientation
      0.0672919     -0.5352123      0.8420330
     -0.0342508     -0.8446877     -0.5341625
      0.9971453      0.0071045     -0.0751721
 >>>>>>>>>>>>>>>>>>>>>>>>>>>>>>>>>>>>>>>>>>>>>>>>>>>>>>>>>>>>>>>>>>>>>>>>>>>>>
 Total job time:  364.21s(wall), 4291.30s(cpu) 
 Tue Dec  5 18:07:14 2023

        *************************************************************
        *                                                           *
        *  Thank you very much for using Q-Chem.  Have a nice day.  *
        *                                                           *
        *************************************************************


0 sent ACK to 0 
now end server 0 ... 
