                  Welcome to Q-Chem
     A Quantum Leap Into The Future Of Chemistry


 Q-Chem 5.4, Q-Chem, Inc., Pleasanton, CA (2021)

 License issued to: Haverford College (site)

 E. Epifanovsky,  A. T. B. Gilbert,  Xintian Feng,  Joonho Lee,  Yuezhi Mao,  
 N. Mardirossian,  P. Pokhilko,  A. White,  M. Wormit,  M. P. Coons,  
 A. L. Dempwolff,  Zhengting Gan,  D. Hait,  P. R. Horn,  L. D. Jacobson,  
 I. Kaliman,  J. Kussmann,  A. W. Lange,  Ka Un Lao,  D. S. Levine,  Jie Liu,  
 S. C. McKenzie,  A. F. Morrison,  K. Nanda,  F. Plasser,  D. R. Rehn,  
 M. L. Vidal,  Zhi-Qiang You,  Ying Zhu,  B. Alam,  B. Albrecht,  
 A. Aldossary,  E. Alguire,  J. H. Andersen,  D. Barton,  K. Begam,  A. Behn,  
 Y. A. Bernard,  E. J. Berquist,  H. Burton,  A. Carreras,  K. Carter-Fenk,  
 R. Chakraborty,  A. D. Chien,  K. D. Closser,  V. Cofer-Shabica,  
 S. Dasgupta,  Jia Deng,  M. de Wergifosse,  M. Diedenhofen,  Hainam Do,  
 S. Ehlert,  Po-Tung Fang,  S. Fatehi,  Qingguo Feng,  J. Gayvert,  
 Qinghui Ge,  G. Gidofalvi,  M. Goldey,  J. Gomes,  C. Gonzalez-Espinoza,  
 S. Gulania,  A. Gunina,  M. W. D. Hanson-Heine,  P. H. P. Harbach,  
 A. W. Hauser,  M. F. Herbst,  M. Hernandez Vera,  M. Hodecker,  
 Z. C. Holden,  S. Houck,  Xunkun Huang,  Kerwin Hui,  B. C. Huynh,  
 M. Ivanov,  Hyunjun Ji,  Hanjie Jiang,  B. Kaduk,  S. Kaehler,  
 K. Khistyaev,  Jaehoon Kim,  P. Klunzinger,  Z. Koczor-Benda,  
 Joong Hoon Koh,  D. Kosenkov,  L. Koulias,  T. Kowalczyk,  C. M. Krauter,  
 K. Kue,  A. Kunitsa,  T. Kus,  A. Landau,  K. V. Lawler,  D. Lefrancois,  
 S. Lehtola,  Rain Li,  Yi-Pei Li,  Jiashu Liang,  M. Liebenthal,  
 Hung-Hsuan Lin,  You-Sheng Lin,  Fenglai Liu,  Kuan-Yu Liu,  
 M. Loipersberger,  A. Luenser,  A. Manjanath,  P. Manohar,  E. Mansoor,  
 S. F. Manzer,  Shan-Ping Mao,  A. V. Marenich,  T. Markovich,  S. Mason,  
 S. A. Maurer,  P. F. McLaughlin,  M. F. S. J. Menger,  J.-M. Mewes,  
 S. A. Mewes,  P. Morgante,  J. W. Mullinax,  T. S. Nguyen-Beck,  
 K. J. Oosterbaan,  G. Paran,  Alexander C. Paul,  Suranjan K. Paul,  
 F. Pavosevic,  Zheng Pei,  S. Prager,  E. I. Proynov,  E. Ramos,  B. Rana,  
 A. E. Rask,  A. Rettig,  R. M. Richard,  F. Rob,  E. Rossomme,  T. Scheele,  
 M. Scheurer,  M. Schneider,  N. Sergueev,  S. M. Sharada,  W. Skomorowski,  
 D. W. Small,  C. J. Stein,  Yu-Chuan Su,  E. J. Sundstrom,  Zhen Tao,  
 J. Thirman,  T. Tsuchimochi,  N. M. Tubman,  S. P. Veccham,  O. Vydrov,  
 J. Wenzel,  J. Witte,  A. Yamada,  Kun Yao,  S. Yeganeh,  S. R. Yost,  
 A. Zech,  Igor Ying Zhang,  Xing Zhang,  Yu Zhang,  D. Zuev,  
 A. Aspuru-Guzik,  A. T. Bell,  N. A. Besley,  K. B. Bravaya,  B. R. Brooks,  
 D. Casanova,  Jeng-Da Chai,  S. Coriani,  C. J. Cramer,  
 A. E. DePrince, III,  R. A. DiStasio Jr.,  A. Dreuw,  B. D. Dunietz,  
 T. R. Furlani,  W. A. Goddard III,  S. Grimme,  S. Hammes-Schiffer,  
 T. Head-Gordon,  W. J. Hehre,  Chao-Ping Hsu,  T.-C. Jagau,  Yousung Jung,  
 A. Klamt,  Jing Kong,  D. S. Lambrecht,  WanZhen Liang,  N. J. Mayhall,  
 C. W. McCurdy,  J. B. Neaton,  C. Ochsenfeld,  J. A. Parkhill,  R. Peverati,  
 V. A. Rassolov,  Yihan Shao,  L. V. Slipchenko,  T. Stauch,  R. P. Steele,  
 J. E. Subotnik,  A. J. W. Thom,  A. Tkatchenko,  D. G. Truhlar,  
 T. Van Voorhis,  T. A. Wesolowski,  K. B. Whaley,  H. L. Woodcock III,  
 P. M. Zimmerman,  S. Faraji,  P. M. W. Gill,  M. Head-Gordon,  
 J. M. Herbert,  A. I. Krylov

 Contributors to earlier versions of Q-Chem not listed above: 
 R. D. Adamson,  B. Austin,  R. Baer,  J. Baker,  G. J. O. Beran,  
 K. Brandhorst,  S. T. Brown,  E. F. C. Byrd,  A. K. Chakraborty,  
 G. K. L. Chan,  Chun-Min Chang,  Yunqing Chen,  C.-L. Cheng,  
 Siu Hung Chien,  D. M. Chipman,  D. L. Crittenden,  H. Dachsel,  
 R. J. Doerksen,  A. D. Dutoi,  R. G. Edgar,  J. Fosso-Tande,  
 L. Fusti-Molnar,  D. Ghosh,  A. Ghysels,  A. Golubeva-Zadorozhnaya,  
 J. Gonthier,  M. S. Gordon,  S. R. Gwaltney,  G. Hawkins,  J. E. Herr,  
 A. Heyden,  S. Hirata,  E. G. Hohenstein,  G. Kedziora,  F. J. Keil,  
 C. Kelley,  Jihan Kim,  R. A. King,  R. Z. Khaliullin,  P. P. Korambath,  
 W. Kurlancheek,  A. Laurent,  A. M. Lee,  M. S. Lee,  S. V. Levchenko,  
 Ching Yeh Lin,  D. Liotard,  E. Livshits,  R. C. Lochan,  I. Lotan,  
 L. A. Martinez-Martinez,  P. E. Maslen,  N. Nair,  D. P. O'Neill,  
 D. Neuhauser,  E. Neuscamman,  C. M. Oana,  R. Olivares-Amaya,  R. Olson,  
 T. M. Perrine,  B. Peters,  P. A. Pieniazek,  A. Prociuk,  Y. M. Rhee,  
 J. Ritchie,  M. A. Rohrdanz,  E. Rosta,  N. J. Russ,  H. F. Schaefer III,  
 M. W. Schmidt,  N. E. Schultz,  S. Sharma,  N. Shenvi,  C. D. Sherrill,  
 A. C. Simmonett,  A. Sodt,  T. Stein,  D. Stuck,  K. S. Thanthiriwatte,  
 V. Vanovschi,  L. Vogt,  Tao Wang,  A. Warshel,  M. A. Watson,  
 C. F. Williams,  Q. Wu,  X. Xu,  Jun Yang,  W. Zhang,  Yan Zhao

 Please cite Q-Chem as follows:
 Y. Shao et al., Mol. Phys. 113, 184-215 (2015)
 DOI: 10.1080/00268976.2014.952696

 Q-Chem 5.4.0 for Intel X86 EM64T Linux

 Parts of Q-Chem use Armadillo 9.800.1 (Horizon Scraper).
 http://arma.sourceforge.net/

 Q-Chem begins on Fri Oct  6 16:48:03 2023  

 Host: 
0

     Scratch files written to /local_scratch/qchem/pyqchem_2035299//
 May1621 |scratch|qcdevops|jenkins|workspace|build_RNUM 7396   
 Processing $rem in /pikachu/sw/qchem/5.4.0/config/preferences:
 Processing $rem in /homes/kstreu/.qchemrc:

 Checking the input file for inconsistencies... 	...done.

--------------------------------------------------------------
User input:
--------------------------------------------------------------
$molecule
0 1
C	        0.0000020931         0.0000005742        -0.0778582507
C	       -0.0000026792        -0.0000000006        -1.5265565179
H	       -0.0000042453        -0.0000015424        -2.6701477486
C	       -0.0000033960         0.0000000000         1.2425847736
H	        0.9916338986         0.2601992926         1.6323041616
H	       -0.2704868842        -0.9888840827         1.6322971256
H	       -0.7211607094         0.7286858010         1.6322999265
$end
$rem
jobtype sp
method tpss
basis 6-311++g**
thresh 14
scf_convergence 9
scf_algorithm rca_diis
max_scf_cycles 200
gui 2
set_iter 30
RPA False
mem_total 100000
mem_static 2000
n_frozen_virtual 0
mom_start False
skip_scfman False
scf_guess_mix False
symmetry False
sym_ignore True
sym_tol 5
dft_d d3
xc_smart_grid True
xc_grid 000099000590
$end

--------------------------------------------------------------
 Adding empirical dispersion correction 
 ----------------------------------------------------------------
 Doing -D3(OP) with
 s6  =   1.00000
 s8  =   0.51581
 a1  =   0.57500
 a2  =   3.00000
 pow =   14.00000
 -D3 energy without 3body term =     -0.0010186356 hartrees
 ----------------------------------------------------------------
             Standard Nuclear Orientation (Angstroms)
    I     Atom           X                Y                Z
 ----------------------------------------------------------------
    1      C       0.0000020931     0.0000005742    -0.0778582507
    2      C      -0.0000026792    -0.0000000006    -1.5265565179
    3      H      -0.0000042453    -0.0000015424    -2.6701477486
    4      C      -0.0000033960     0.0000000000     1.2425847736
    5      H       0.9916338986     0.2601992926     1.6323041616
    6      H      -0.2704868842    -0.9888840827     1.6322971256
    7      H      -0.7211607094     0.7286858010     1.6322999265
 ----------------------------------------------------------------
 Nuclear Repulsion Energy =          56.85133256 hartrees
 There are       11 alpha and       11 beta electrons
 Requested basis set is 6-311++G(d,p)
 There are 38 shells and 94 basis functions

 Total QAlloc Memory Limit 100000 MB
 Mega-Array Size      1956 MB
 MEM_STATIC part      2000 MB

                       Distance Matrix (Angstroms)
             C (  1)   C (  2)   H (  3)   C (  4)   H (  5)   H (  6)
   C (  2)  1.448698
   H (  3)  2.592289  1.143591
   C (  4)  1.320443  2.769141  3.912733
   H (  5)  1.993914  3.321061  4.422911  1.096781
   H (  6)  1.993913  3.321056  4.422904  1.096781  1.775713
   H (  7)  1.993915  3.321058  4.422907  1.096781  1.775710  1.775712

 
 A cutoff of  1.0D-14 yielded    736 shell pairs
 There are      4571 function pairs (      4874 Cartesian)
 Smallest overlap matrix eigenvalue = 4.05E-06

 Scale SEOQF with 1.000000e-01/1.000000e-01/1.000000e-01

 Standard Electronic Orientation quadrupole field applied
 Nucleus-field energy     =    -0.0000000039 hartrees
 Guess from superposition of atomic densities
 Warning:  Energy on first SCF cycle will be non-variational
 SAD guess density has 22.000000 electrons
 A restricted Kohn-Sham SCF calculation will be
 performed using Relaxed Constraint Minimization + Pulay DIIS
 Exchange:  TPSS      Correlation:  TPSS
 Using Euler-Maclaurin-Lebedev (99,590) quadrature formula
 Dispersion:   Grimme D3
 SCF converges when DIIS error is below 1.0E-09
 using 20 threads for integral computing
 -------------------------------------------------------
 OpenMP Integral computing Module                
 Release: version 1.0, May 2013, Q-Chem Inc. Pittsburgh 
 -------------------------------------------------------
 ---------------------------------------
  Cycle       Energy         DIIS Error
 ---------------------------------------
    1    -116.8593557919      5.40E-02
    2    -116.5327005051      8.52E-03
    3    -116.5643364186      3.10E-03
    4    -116.5821532259      2.34E-03
    5    -116.5893202969      5.61E-04 Done RCA. Switching to DIIS
    6    -116.6170459523      1.94E-03
    7    -116.5146398589      9.26E-03
    8    -116.6216015947      7.18E-05
    9    -116.6216065536      3.40E-05
   10    -116.6216077889      1.07E-05
   11    -116.6216079319      1.97E-06
   12    -116.6216079365      4.33E-07
   13    -116.6216079368      1.16E-07
   14    -116.6216079368      2.14E-08
   15    -116.6216079368      1.57E-09
   16    -116.6216079368      2.26E-10 Convergence criterion met
 ---------------------------------------
 SCF time:  CPU 89.12 s  wall 4.50 s
 SCF   energy in the final basis set = -116.62160794
 Total energy in the final basis set = -116.62160794
 
 --------------------------------------------------------------
 
                    Orbital Energies (a.u.)
 --------------------------------------------------------------
 
 Alpha MOs
 -- Occupied --
-10.0298 -10.0272 -10.0136  -0.7583  -0.6120  -0.4930  -0.4184  -0.4173
 -0.4173  -0.2088  -0.2088
 -- Virtual --
 -0.0398  -0.0398  -0.0150   0.0062   0.0338   0.0338   0.0379   0.0676
  0.0815   0.0815   0.0970   0.0970   0.1137   0.1206   0.1376   0.1376
  0.1549   0.1742   0.1742   0.1982   0.2172   0.2856   0.3109   0.4163
  0.4272   0.4272   0.5359   0.5586   0.5586   0.5981   0.5981   0.6091
  0.6091   0.6706   0.7154   0.7352   0.7635   0.8532   0.9290   0.9290
  0.9489   1.0973   1.1756   1.1756   1.2712   1.2712   1.4038   1.4038
  1.4114   1.5141   1.5141   1.5674   1.5674   1.7250   1.7920   1.7920
  1.8243   2.0300   2.0902   2.0902   2.3549   2.3816   2.3816   2.5341
  2.5429   2.5429   2.6030   2.6030   2.7296   2.8162   2.8162   2.8604
  2.8604   2.9831   3.0955   3.2611   3.4711   3.8396   3.8396   3.9466
 23.5180  23.9073  24.4861
 --------------------------------------------------------------
 
          Ground-State Mulliken Net Atomic Charges

     Atom                 Charge (a.u.)
  ----------------------------------------
      1 C                     0.897998
      2 C                    -1.290466
      3 H                     0.219281
      4 C                    -0.395443
      5 H                     0.189543
      6 H                     0.189543
      7 H                     0.189544
  ----------------------------------------
  Sum of atomic charges =     0.000000

 -----------------------------------------------------------------
                    Cartesian Multipole Moments
 -----------------------------------------------------------------
    Charge (ESU x 10^10)
                 0.0000
    Dipole Moment (Debye)
         X      -0.0000      Y      -0.0000      Z       1.2561
       Tot       1.2561
    Quadrupole Moments (Debye-Ang)
        XX     -20.5680     XY       0.0000     YY     -20.5680
        XZ       0.0000     YZ       0.0000     ZZ     -13.3668
    Octopole Moments (Debye-Ang^2)
       XXX       0.5628    XXY       0.5454    XYY      -0.5627
       YYY      -0.5455    XXZ       4.8696    XYZ       0.0000
       YYZ       4.8696    XZZ      -0.0000    YZZ      -0.0000
       ZZZ     -10.1804
    Hexadecapole Moments (Debye-Ang^3)
      XXXX     -32.6917   XXXY      -0.0000   XXYY     -10.8972
      XYYY      -0.0000   YYYY     -32.6917   XXXZ       0.8697
      XXYZ       0.8430   XYYZ      -0.8697   YYYZ      -0.8431
      XXZZ     -42.4762   XYZZ       0.0000   YYZZ     -42.4762
      XZZZ       0.0001   YZZZ       0.0001   ZZZZ    -160.9036
 -----------------------------------------------------------------
 Total job time:  4.87s(wall), 95.89s(cpu) 
 Fri Oct  6 16:48:08 2023

        *************************************************************
        *                                                           *
        *  Thank you very much for using Q-Chem.  Have a nice day.  *
        *                                                           *
        *************************************************************


