                  Welcome to Q-Chem
     A Quantum Leap Into The Future Of Chemistry


 Q-Chem 5.4, Q-Chem, Inc., Pleasanton, CA (2021)

 License issued to: Haverford College (site)

 E. Epifanovsky,  A. T. B. Gilbert,  Xintian Feng,  Joonho Lee,  Yuezhi Mao,  
 N. Mardirossian,  P. Pokhilko,  A. White,  M. Wormit,  M. P. Coons,  
 A. L. Dempwolff,  Zhengting Gan,  D. Hait,  P. R. Horn,  L. D. Jacobson,  
 I. Kaliman,  J. Kussmann,  A. W. Lange,  Ka Un Lao,  D. S. Levine,  Jie Liu,  
 S. C. McKenzie,  A. F. Morrison,  K. Nanda,  F. Plasser,  D. R. Rehn,  
 M. L. Vidal,  Zhi-Qiang You,  Ying Zhu,  B. Alam,  B. Albrecht,  
 A. Aldossary,  E. Alguire,  J. H. Andersen,  D. Barton,  K. Begam,  A. Behn,  
 Y. A. Bernard,  E. J. Berquist,  H. Burton,  A. Carreras,  K. Carter-Fenk,  
 R. Chakraborty,  A. D. Chien,  K. D. Closser,  V. Cofer-Shabica,  
 S. Dasgupta,  Jia Deng,  M. de Wergifosse,  M. Diedenhofen,  Hainam Do,  
 S. Ehlert,  Po-Tung Fang,  S. Fatehi,  Qingguo Feng,  J. Gayvert,  
 Qinghui Ge,  G. Gidofalvi,  M. Goldey,  J. Gomes,  C. Gonzalez-Espinoza,  
 S. Gulania,  A. Gunina,  M. W. D. Hanson-Heine,  P. H. P. Harbach,  
 A. W. Hauser,  M. F. Herbst,  M. Hernandez Vera,  M. Hodecker,  
 Z. C. Holden,  S. Houck,  Xunkun Huang,  Kerwin Hui,  B. C. Huynh,  
 M. Ivanov,  Hyunjun Ji,  Hanjie Jiang,  B. Kaduk,  S. Kaehler,  
 K. Khistyaev,  Jaehoon Kim,  P. Klunzinger,  Z. Koczor-Benda,  
 Joong Hoon Koh,  D. Kosenkov,  L. Koulias,  T. Kowalczyk,  C. M. Krauter,  
 K. Kue,  A. Kunitsa,  T. Kus,  A. Landau,  K. V. Lawler,  D. Lefrancois,  
 S. Lehtola,  Rain Li,  Yi-Pei Li,  Jiashu Liang,  M. Liebenthal,  
 Hung-Hsuan Lin,  You-Sheng Lin,  Fenglai Liu,  Kuan-Yu Liu,  
 M. Loipersberger,  A. Luenser,  A. Manjanath,  P. Manohar,  E. Mansoor,  
 S. F. Manzer,  Shan-Ping Mao,  A. V. Marenich,  T. Markovich,  S. Mason,  
 S. A. Maurer,  P. F. McLaughlin,  M. F. S. J. Menger,  J.-M. Mewes,  
 S. A. Mewes,  P. Morgante,  J. W. Mullinax,  T. S. Nguyen-Beck,  
 K. J. Oosterbaan,  G. Paran,  Alexander C. Paul,  Suranjan K. Paul,  
 F. Pavosevic,  Zheng Pei,  S. Prager,  E. I. Proynov,  E. Ramos,  B. Rana,  
 A. E. Rask,  A. Rettig,  R. M. Richard,  F. Rob,  E. Rossomme,  T. Scheele,  
 M. Scheurer,  M. Schneider,  N. Sergueev,  S. M. Sharada,  W. Skomorowski,  
 D. W. Small,  C. J. Stein,  Yu-Chuan Su,  E. J. Sundstrom,  Zhen Tao,  
 J. Thirman,  T. Tsuchimochi,  N. M. Tubman,  S. P. Veccham,  O. Vydrov,  
 J. Wenzel,  J. Witte,  A. Yamada,  Kun Yao,  S. Yeganeh,  S. R. Yost,  
 A. Zech,  Igor Ying Zhang,  Xing Zhang,  Yu Zhang,  D. Zuev,  
 A. Aspuru-Guzik,  A. T. Bell,  N. A. Besley,  K. B. Bravaya,  B. R. Brooks,  
 D. Casanova,  Jeng-Da Chai,  S. Coriani,  C. J. Cramer,  
 A. E. DePrince, III,  R. A. DiStasio Jr.,  A. Dreuw,  B. D. Dunietz,  
 T. R. Furlani,  W. A. Goddard III,  S. Grimme,  S. Hammes-Schiffer,  
 T. Head-Gordon,  W. J. Hehre,  Chao-Ping Hsu,  T.-C. Jagau,  Yousung Jung,  
 A. Klamt,  Jing Kong,  D. S. Lambrecht,  WanZhen Liang,  N. J. Mayhall,  
 C. W. McCurdy,  J. B. Neaton,  C. Ochsenfeld,  J. A. Parkhill,  R. Peverati,  
 V. A. Rassolov,  Yihan Shao,  L. V. Slipchenko,  T. Stauch,  R. P. Steele,  
 J. E. Subotnik,  A. J. W. Thom,  A. Tkatchenko,  D. G. Truhlar,  
 T. Van Voorhis,  T. A. Wesolowski,  K. B. Whaley,  H. L. Woodcock III,  
 P. M. Zimmerman,  S. Faraji,  P. M. W. Gill,  M. Head-Gordon,  
 J. M. Herbert,  A. I. Krylov

 Contributors to earlier versions of Q-Chem not listed above: 
 R. D. Adamson,  B. Austin,  R. Baer,  J. Baker,  G. J. O. Beran,  
 K. Brandhorst,  S. T. Brown,  E. F. C. Byrd,  A. K. Chakraborty,  
 G. K. L. Chan,  Chun-Min Chang,  Yunqing Chen,  C.-L. Cheng,  
 Siu Hung Chien,  D. M. Chipman,  D. L. Crittenden,  H. Dachsel,  
 R. J. Doerksen,  A. D. Dutoi,  R. G. Edgar,  J. Fosso-Tande,  
 L. Fusti-Molnar,  D. Ghosh,  A. Ghysels,  A. Golubeva-Zadorozhnaya,  
 J. Gonthier,  M. S. Gordon,  S. R. Gwaltney,  G. Hawkins,  J. E. Herr,  
 A. Heyden,  S. Hirata,  E. G. Hohenstein,  G. Kedziora,  F. J. Keil,  
 C. Kelley,  Jihan Kim,  R. A. King,  R. Z. Khaliullin,  P. P. Korambath,  
 W. Kurlancheek,  A. Laurent,  A. M. Lee,  M. S. Lee,  S. V. Levchenko,  
 Ching Yeh Lin,  D. Liotard,  E. Livshits,  R. C. Lochan,  I. Lotan,  
 L. A. Martinez-Martinez,  P. E. Maslen,  N. Nair,  D. P. O'Neill,  
 D. Neuhauser,  E. Neuscamman,  C. M. Oana,  R. Olivares-Amaya,  R. Olson,  
 T. M. Perrine,  B. Peters,  P. A. Pieniazek,  A. Prociuk,  Y. M. Rhee,  
 J. Ritchie,  M. A. Rohrdanz,  E. Rosta,  N. J. Russ,  H. F. Schaefer III,  
 M. W. Schmidt,  N. E. Schultz,  S. Sharma,  N. Shenvi,  C. D. Sherrill,  
 A. C. Simmonett,  A. Sodt,  T. Stein,  D. Stuck,  K. S. Thanthiriwatte,  
 V. Vanovschi,  L. Vogt,  Tao Wang,  A. Warshel,  M. A. Watson,  
 C. F. Williams,  Q. Wu,  X. Xu,  Jun Yang,  W. Zhang,  Yan Zhao

 Please cite Q-Chem as follows:
 Y. Shao et al., Mol. Phys. 113, 184-215 (2015)
 DOI: 10.1080/00268976.2014.952696

 Q-Chem 5.4.0 for Intel X86 EM64T Linux

 Parts of Q-Chem use Armadillo 9.800.1 (Horizon Scraper).
 http://arma.sourceforge.net/

 Q-Chem begins on Fri Oct  6 16:48:35 2023  

 Host: 
0

     Scratch files written to /local_scratch/qchem/pyqchem_2035299//
 May1621 |scratch|qcdevops|jenkins|workspace|build_RNUM 7396   
 Processing $rem in /pikachu/sw/qchem/5.4.0/config/preferences:
 Processing $rem in /homes/kstreu/.qchemrc:

 Checking the input file for inconsistencies... 	...done.

--------------------------------------------------------------
User input:
--------------------------------------------------------------
$molecule
0 1
C	        0.0000015021         0.0000005123         0.0643137433
C	       -0.0000028721        -0.0000000251        -1.6287178960
H	       -0.0000044726        -0.0000018353        -2.8522820203
C	       -0.0000033960         0.0000000000         1.2425847736
H	        0.9916338986         0.2601992926         1.6323041616
H	       -0.2704868842        -0.9888840827         1.6322971256
H	       -0.7211607094         0.7286858010         1.6322999265
$end
$rem
jobtype sp
method tpss
basis 6-311++g**
thresh 14
scf_convergence 9
scf_algorithm rca_diis
max_scf_cycles 200
gui 2
set_iter 30
RPA False
mem_total 100000
mem_static 2000
n_frozen_virtual 0
mom_start False
skip_scfman False
scf_guess_mix False
symmetry False
sym_ignore True
sym_tol 5
dft_d d3
xc_smart_grid True
xc_grid 000099000590
$end

--------------------------------------------------------------
 Adding empirical dispersion correction 
 ----------------------------------------------------------------
 Doing -D3(OP) with
 s6  =   1.00000
 s8  =   0.51581
 a1  =   0.57500
 a2  =   3.00000
 pow =   14.00000
 -D3 energy without 3body term =     -0.0010311848 hartrees
 ----------------------------------------------------------------
             Standard Nuclear Orientation (Angstroms)
    I     Atom           X                Y                Z
 ----------------------------------------------------------------
    1      C       0.0000015021     0.0000005123     0.0643137433
    2      C      -0.0000028721    -0.0000000251    -1.6287178960
    3      H      -0.0000044726    -0.0000018353    -2.8522820203
    4      C      -0.0000033960     0.0000000000     1.2425847736
    5      H       0.9916338986     0.2601992926     1.6323041616
    6      H      -0.2704868842    -0.9888840827     1.6322971256
    7      H      -0.7211607094     0.7286858010     1.6322999265
 ----------------------------------------------------------------
 Nuclear Repulsion Energy =          56.30765451 hartrees
 There are       11 alpha and       11 beta electrons
 Requested basis set is 6-311++G(d,p)
 There are 38 shells and 94 basis functions

 Total QAlloc Memory Limit 100000 MB
 Mega-Array Size      1956 MB
 MEM_STATIC part      2000 MB

                       Distance Matrix (Angstroms)
             C (  1)   C (  2)   H (  3)   C (  4)   H (  5)   H (  6)
   C (  2)  1.693032
   H (  3)  2.916596  1.223564
   C (  4)  1.178271  2.871303  4.094867
   H (  5)  1.873401  3.418379  4.600279  1.096781
   H (  6)  1.873400  3.418373  4.600272  1.096781  1.775713
   H (  7)  1.873403  3.418375  4.600275  1.096781  1.775710  1.775712

 
 A cutoff of  1.0D-14 yielded    729 shell pairs
 There are      4550 function pairs (      4853 Cartesian)
 Smallest overlap matrix eigenvalue = 3.06E-06

 Scale SEOQF with 1.000000e-01/1.000000e-01/1.000000e-01

 Standard Electronic Orientation quadrupole field applied
 Nucleus-field energy     =    -0.0000000043 hartrees
 Guess from superposition of atomic densities
 Warning:  Energy on first SCF cycle will be non-variational
 SAD guess density has 22.000000 electrons
 A restricted Kohn-Sham SCF calculation will be
 performed using Relaxed Constraint Minimization + Pulay DIIS
 Exchange:  TPSS      Correlation:  TPSS
 Using Euler-Maclaurin-Lebedev (99,590) quadrature formula
 Dispersion:   Grimme D3
 SCF converges when DIIS error is below 1.0E-09
 using 20 threads for integral computing
 -------------------------------------------------------
 OpenMP Integral computing Module                
 Release: version 1.0, May 2013, Q-Chem Inc. Pittsburgh 
 -------------------------------------------------------
 ---------------------------------------
  Cycle       Energy         DIIS Error
 ---------------------------------------
    1    -116.8413596836      5.80E-02
    2    -116.2891262596      1.12E-02
    3    -116.3309149682      5.83E-03
    4    -116.3765467937      2.65E-03
    5    -116.3898977914      2.16E-03
    6    -116.3948474414      3.38E-04 Done RCA. Switching to DIIS
    7    -116.4269079449      4.23E-04
    8    -116.4156475049      3.01E-03
    9    -116.4270451574      2.75E-04
   10    -116.4271321512      1.60E-05
   11    -116.4271324047      6.80E-06
   12    -116.4271324599      2.27E-06
   13    -116.4271324675      1.70E-07
   14    -116.4271324676      6.72E-08
   15    -116.4271324676      1.92E-08
   16    -116.4271324676      1.50E-09
   17    -116.4271324676      1.13E-10 Convergence criterion met
 ---------------------------------------
 SCF time:  CPU 91.62 s  wall 4.63 s
 SCF   energy in the final basis set = -116.42713247
 Total energy in the final basis set = -116.42713247
 
 --------------------------------------------------------------
 
                    Orbital Energies (a.u.)
 --------------------------------------------------------------
 
 Alpha MOs
 -- Occupied --
-10.0570 -10.0489 -10.0148  -0.8069  -0.5719  -0.5042  -0.4475  -0.4475
 -0.4010  -0.1838  -0.1838
 -- Virtual --
 -0.0743  -0.0743  -0.0470  -0.0110   0.0203   0.0296   0.0296   0.0484
  0.0820   0.0820   0.0929   0.0929   0.1076   0.1148   0.1302   0.1302
  0.1361   0.1710   0.1710   0.1934   0.2213   0.2633   0.2841   0.4075
  0.4204   0.4204   0.5361   0.5519   0.5519   0.5797   0.5797   0.6063
  0.6063   0.6423   0.7048   0.7363   0.7624   0.8637   0.9315   0.9315
  0.9754   1.0449   1.1905   1.1905   1.2603   1.2603   1.3605   1.3605
  1.3953   1.5329   1.5329   1.5512   1.5512   1.6261   1.7708   1.7708
  1.8222   1.9851   2.0454   2.0454   2.2673   2.3370   2.3370   2.4295
  2.5197   2.5197   2.6044   2.6044   2.7536   2.7536   2.7638   2.8476
  2.8476   2.8907   3.0245   3.1945   3.5179   3.8212   3.8722   3.8722
 23.4607  23.5552  24.9290
 --------------------------------------------------------------
 
          Ground-State Mulliken Net Atomic Charges

     Atom                 Charge (a.u.)
  ----------------------------------------
      1 C                     0.244282
      2 C                    -0.882269
      3 H                     0.288494
      4 C                    -0.243640
      5 H                     0.197711
      6 H                     0.197711
      7 H                     0.197712
  ----------------------------------------
  Sum of atomic charges =     0.000000

 -----------------------------------------------------------------
                    Cartesian Multipole Moments
 -----------------------------------------------------------------
    Charge (ESU x 10^10)
                 0.0000
    Dipole Moment (Debye)
         X      -0.0000      Y      -0.0000      Z       1.7717
       Tot       1.7717
    Quadrupole Moments (Debye-Ang)
        XX     -21.1472     XY       0.0000     YY     -21.1472
        XZ       0.0000     YZ       0.0000     ZZ     -12.7317
    Octopole Moments (Debye-Ang^2)
       XXX       0.5966    XXY       0.5782    XYY      -0.5965
       YYY      -0.5782    XXZ       6.5019    XYZ       0.0000
       YYZ       6.5020    XZZ      -0.0000    YZZ      -0.0000
       ZZZ     -12.5283
    Hexadecapole Moments (Debye-Ang^3)
      XXXX     -35.2519   XXXY      -0.0000   XXYY     -11.7506
      XYYY      -0.0000   YYYY     -35.2519   XXXZ       0.8103
      XXYZ       0.7854   XYYZ      -0.8103   YYYZ      -0.7855
      XXZZ     -47.7891   XYZZ       0.0000   YYZZ     -47.7891
      XZZZ       0.0002   YZZZ       0.0001   ZZZZ    -162.4439
 -----------------------------------------------------------------
 Total job time:  5.03s(wall), 98.61s(cpu) 
 Fri Oct  6 16:48:40 2023

        *************************************************************
        *                                                           *
        *  Thank you very much for using Q-Chem.  Have a nice day.  *
        *                                                           *
        *************************************************************


