                  Welcome to Q-Chem
     A Quantum Leap Into The Future Of Chemistry


 Q-Chem 5.4, Q-Chem, Inc., Pleasanton, CA (2021)

 License issued to: Haverford College (site)

 E. Epifanovsky,  A. T. B. Gilbert,  Xintian Feng,  Joonho Lee,  Yuezhi Mao,  
 N. Mardirossian,  P. Pokhilko,  A. White,  M. Wormit,  M. P. Coons,  
 A. L. Dempwolff,  Zhengting Gan,  D. Hait,  P. R. Horn,  L. D. Jacobson,  
 I. Kaliman,  J. Kussmann,  A. W. Lange,  Ka Un Lao,  D. S. Levine,  Jie Liu,  
 S. C. McKenzie,  A. F. Morrison,  K. Nanda,  F. Plasser,  D. R. Rehn,  
 M. L. Vidal,  Zhi-Qiang You,  Ying Zhu,  B. Alam,  B. Albrecht,  
 A. Aldossary,  E. Alguire,  J. H. Andersen,  D. Barton,  K. Begam,  A. Behn,  
 Y. A. Bernard,  E. J. Berquist,  H. Burton,  A. Carreras,  K. Carter-Fenk,  
 R. Chakraborty,  A. D. Chien,  K. D. Closser,  V. Cofer-Shabica,  
 S. Dasgupta,  Jia Deng,  M. de Wergifosse,  M. Diedenhofen,  Hainam Do,  
 S. Ehlert,  Po-Tung Fang,  S. Fatehi,  Qingguo Feng,  J. Gayvert,  
 Qinghui Ge,  G. Gidofalvi,  M. Goldey,  J. Gomes,  C. Gonzalez-Espinoza,  
 S. Gulania,  A. Gunina,  M. W. D. Hanson-Heine,  P. H. P. Harbach,  
 A. W. Hauser,  M. F. Herbst,  M. Hernandez Vera,  M. Hodecker,  
 Z. C. Holden,  S. Houck,  Xunkun Huang,  Kerwin Hui,  B. C. Huynh,  
 M. Ivanov,  Hyunjun Ji,  Hanjie Jiang,  B. Kaduk,  S. Kaehler,  
 K. Khistyaev,  Jaehoon Kim,  P. Klunzinger,  Z. Koczor-Benda,  
 Joong Hoon Koh,  D. Kosenkov,  L. Koulias,  T. Kowalczyk,  C. M. Krauter,  
 K. Kue,  A. Kunitsa,  T. Kus,  A. Landau,  K. V. Lawler,  D. Lefrancois,  
 S. Lehtola,  Rain Li,  Yi-Pei Li,  Jiashu Liang,  M. Liebenthal,  
 Hung-Hsuan Lin,  You-Sheng Lin,  Fenglai Liu,  Kuan-Yu Liu,  
 M. Loipersberger,  A. Luenser,  A. Manjanath,  P. Manohar,  E. Mansoor,  
 S. F. Manzer,  Shan-Ping Mao,  A. V. Marenich,  T. Markovich,  S. Mason,  
 S. A. Maurer,  P. F. McLaughlin,  M. F. S. J. Menger,  J.-M. Mewes,  
 S. A. Mewes,  P. Morgante,  J. W. Mullinax,  T. S. Nguyen-Beck,  
 K. J. Oosterbaan,  G. Paran,  Alexander C. Paul,  Suranjan K. Paul,  
 F. Pavosevic,  Zheng Pei,  S. Prager,  E. I. Proynov,  E. Ramos,  B. Rana,  
 A. E. Rask,  A. Rettig,  R. M. Richard,  F. Rob,  E. Rossomme,  T. Scheele,  
 M. Scheurer,  M. Schneider,  N. Sergueev,  S. M. Sharada,  W. Skomorowski,  
 D. W. Small,  C. J. Stein,  Yu-Chuan Su,  E. J. Sundstrom,  Zhen Tao,  
 J. Thirman,  T. Tsuchimochi,  N. M. Tubman,  S. P. Veccham,  O. Vydrov,  
 J. Wenzel,  J. Witte,  A. Yamada,  Kun Yao,  S. Yeganeh,  S. R. Yost,  
 A. Zech,  Igor Ying Zhang,  Xing Zhang,  Yu Zhang,  D. Zuev,  
 A. Aspuru-Guzik,  A. T. Bell,  N. A. Besley,  K. B. Bravaya,  B. R. Brooks,  
 D. Casanova,  Jeng-Da Chai,  S. Coriani,  C. J. Cramer,  
 A. E. DePrince, III,  R. A. DiStasio Jr.,  A. Dreuw,  B. D. Dunietz,  
 T. R. Furlani,  W. A. Goddard III,  S. Grimme,  S. Hammes-Schiffer,  
 T. Head-Gordon,  W. J. Hehre,  Chao-Ping Hsu,  T.-C. Jagau,  Yousung Jung,  
 A. Klamt,  Jing Kong,  D. S. Lambrecht,  WanZhen Liang,  N. J. Mayhall,  
 C. W. McCurdy,  J. B. Neaton,  C. Ochsenfeld,  J. A. Parkhill,  R. Peverati,  
 V. A. Rassolov,  Yihan Shao,  L. V. Slipchenko,  T. Stauch,  R. P. Steele,  
 J. E. Subotnik,  A. J. W. Thom,  A. Tkatchenko,  D. G. Truhlar,  
 T. Van Voorhis,  T. A. Wesolowski,  K. B. Whaley,  H. L. Woodcock III,  
 P. M. Zimmerman,  S. Faraji,  P. M. W. Gill,  M. Head-Gordon,  
 J. M. Herbert,  A. I. Krylov

 Contributors to earlier versions of Q-Chem not listed above: 
 R. D. Adamson,  B. Austin,  R. Baer,  J. Baker,  G. J. O. Beran,  
 K. Brandhorst,  S. T. Brown,  E. F. C. Byrd,  A. K. Chakraborty,  
 G. K. L. Chan,  Chun-Min Chang,  Yunqing Chen,  C.-L. Cheng,  
 Siu Hung Chien,  D. M. Chipman,  D. L. Crittenden,  H. Dachsel,  
 R. J. Doerksen,  A. D. Dutoi,  R. G. Edgar,  J. Fosso-Tande,  
 L. Fusti-Molnar,  D. Ghosh,  A. Ghysels,  A. Golubeva-Zadorozhnaya,  
 J. Gonthier,  M. S. Gordon,  S. R. Gwaltney,  G. Hawkins,  J. E. Herr,  
 A. Heyden,  S. Hirata,  E. G. Hohenstein,  G. Kedziora,  F. J. Keil,  
 C. Kelley,  Jihan Kim,  R. A. King,  R. Z. Khaliullin,  P. P. Korambath,  
 W. Kurlancheek,  A. Laurent,  A. M. Lee,  M. S. Lee,  S. V. Levchenko,  
 Ching Yeh Lin,  D. Liotard,  E. Livshits,  R. C. Lochan,  I. Lotan,  
 L. A. Martinez-Martinez,  P. E. Maslen,  N. Nair,  D. P. O'Neill,  
 D. Neuhauser,  E. Neuscamman,  C. M. Oana,  R. Olivares-Amaya,  R. Olson,  
 T. M. Perrine,  B. Peters,  P. A. Pieniazek,  A. Prociuk,  Y. M. Rhee,  
 J. Ritchie,  M. A. Rohrdanz,  E. Rosta,  N. J. Russ,  H. F. Schaefer III,  
 M. W. Schmidt,  N. E. Schultz,  S. Sharma,  N. Shenvi,  C. D. Sherrill,  
 A. C. Simmonett,  A. Sodt,  T. Stein,  D. Stuck,  K. S. Thanthiriwatte,  
 V. Vanovschi,  L. Vogt,  Tao Wang,  A. Warshel,  M. A. Watson,  
 C. F. Williams,  Q. Wu,  X. Xu,  Jun Yang,  W. Zhang,  Yan Zhao

 Please cite Q-Chem as follows:
 Y. Shao et al., Mol. Phys. 113, 184-215 (2015)
 DOI: 10.1080/00268976.2014.952696

 Q-Chem 5.4.0 for Intel X86 EM64T Linux

 Parts of Q-Chem use Armadillo 9.800.1 (Horizon Scraper).
 http://arma.sourceforge.net/

 Q-Chem begins on Fri Oct  6 16:47:38 2023  

 Host: 
0

     Scratch files written to /local_scratch/qchem/pyqchem_2035299//
 May1621 |scratch|qcdevops|jenkins|workspace|build_RNUM 7396   
 Processing $rem in /pikachu/sw/qchem/5.4.0/config/preferences:
 Processing $rem in /homes/kstreu/.qchemrc:

 Checking the input file for inconsistencies... 	...done.

--------------------------------------------------------------
User input:
--------------------------------------------------------------
$molecule
0 1
C	        0.0000025856         0.0000006257        -0.1963349123
C	       -0.0000024095         0.0000000320        -1.4414220362
H	       -0.0000040413        -0.0000013357        -2.5183691889
C	       -0.0000033960         0.0000000000         1.2425847736
H	        0.9916338986         0.2601992926         1.6323041616
H	       -0.2704868842        -0.9888840827         1.6322971256
H	       -0.7211607094         0.7286858010         1.6322999265
$end
$rem
jobtype sp
method tpss
basis 6-311++g**
thresh 14
scf_convergence 9
scf_algorithm rca_diis
max_scf_cycles 200
gui 2
set_iter 30
RPA False
mem_total 100000
mem_static 2000
n_frozen_virtual 0
mom_start False
skip_scfman False
scf_guess_mix False
symmetry False
sym_ignore True
sym_tol 5
dft_d d3
xc_smart_grid True
xc_grid 000099000590
$end

--------------------------------------------------------------
 Adding empirical dispersion correction 
 ----------------------------------------------------------------
 Doing -D3(OP) with
 s6  =   1.00000
 s8  =   0.51581
 a1  =   0.57500
 a2  =   3.00000
 pow =   14.00000
 -D3 energy without 3body term =     -0.0010145591 hartrees
 ----------------------------------------------------------------
             Standard Nuclear Orientation (Angstroms)
    I     Atom           X                Y                Z
 ----------------------------------------------------------------
    1      C       0.0000025856     0.0000006257    -0.1963349123
    2      C      -0.0000024095     0.0000000320    -1.4414220362
    3      H      -0.0000040413    -0.0000013357    -2.5183691889
    4      C      -0.0000033960     0.0000000000     1.2425847736
    5      H       0.9916338986     0.2601992926     1.6323041616
    6      H      -0.2704868842    -0.9888840827     1.6322971256
    7      H      -0.7211607094     0.7286858010     1.6322999265
 ----------------------------------------------------------------
 Nuclear Repulsion Energy =          58.22959522 hartrees
 There are       11 alpha and       11 beta electrons
 Requested basis set is 6-311++G(d,p)
 There are 38 shells and 94 basis functions

 Total QAlloc Memory Limit 100000 MB
 Mega-Array Size      1956 MB
 MEM_STATIC part      2000 MB

                       Distance Matrix (Angstroms)
             C (  1)   C (  2)   H (  3)   C (  4)   H (  5)   H (  6)
   C (  2)  1.245087
   H (  3)  2.322034  1.076947
   C (  4)  1.438920  2.684007  3.760954
   H (  5)  2.096415  3.240191  4.275411  1.096781
   H (  6)  2.096414  3.240186  4.275404  1.096781  1.775713
   H (  7)  2.096417  3.240188  4.275407  1.096781  1.775710  1.775712

 
 A cutoff of  1.0D-14 yielded    736 shell pairs
 There are      4571 function pairs (      4874 Cartesian)
 Smallest overlap matrix eigenvalue = 2.55E-06

 Scale SEOQF with 1.000000e-01/1.000000e-01/1.000000e-01

 Standard Electronic Orientation quadrupole field applied
 Nucleus-field energy     =    -0.0000000037 hartrees
 Guess from superposition of atomic densities
 Warning:  Energy on first SCF cycle will be non-variational
 SAD guess density has 22.000000 electrons
 A restricted Kohn-Sham SCF calculation will be
 performed using Relaxed Constraint Minimization + Pulay DIIS
 Exchange:  TPSS      Correlation:  TPSS
 Using Euler-Maclaurin-Lebedev (99,590) quadrature formula
 Dispersion:   Grimme D3
 SCF converges when DIIS error is below 1.0E-09
 using 20 threads for integral computing
 -------------------------------------------------------
 OpenMP Integral computing Module                
 Release: version 1.0, May 2013, Q-Chem Inc. Pittsburgh 
 -------------------------------------------------------
 ---------------------------------------
  Cycle       Energy         DIIS Error
 ---------------------------------------
    1    -116.9552873588      5.66E-02
    2    -116.6028061123      9.13E-03
    3    -116.6475428233      1.53E-03
    4    -116.7031810035      1.74E-03
    5    -116.7042267532      7.53E-04 Done RCA. Switching to DIIS
    6    -116.7041995795      1.35E-03
    7    -116.6889400161      3.87E-03
    8    -116.7058987741      5.51E-04
    9    -116.7062595933      2.35E-05
   10    -116.7062600998      8.18E-06
   11    -116.7062601717      2.29E-06
   12    -116.7062601789      1.97E-07
   13    -116.7062601789      3.21E-08
   14    -116.7062601789      2.01E-09
   15    -116.7062601789      4.64E-10 Convergence criterion met
 ---------------------------------------
 SCF time:  CPU 85.48 s  wall 4.31 s
 SCF   energy in the final basis set = -116.70626018
 Total energy in the final basis set = -116.70626018
 
 --------------------------------------------------------------
 
                    Orbital Energies (a.u.)
 --------------------------------------------------------------
 
 Alpha MOs
 -- Occupied --
-10.0126  -9.9946  -9.9830  -0.7291  -0.6462  -0.4884  -0.4161  -0.3987
 -0.3987  -0.2344  -0.2344
 -- Virtual --
 -0.0115   0.0004   0.0004   0.0128   0.0389   0.0389   0.0481   0.0811
  0.0811   0.0893   0.1014   0.1014   0.1146   0.1277   0.1445   0.1445
  0.1799   0.1799   0.1836   0.1986   0.2121   0.2850   0.3190   0.4294
  0.4294   0.4495   0.5195   0.5525   0.5525   0.6078   0.6078   0.6308
  0.6308   0.6756   0.7135   0.7499   0.8082   0.9412   0.9541   0.9541
  0.9818   1.1390   1.1487   1.1487   1.2921   1.2921   1.4221   1.4560
  1.4560   1.5538   1.5538   1.5867   1.5867   1.6908   1.8322   1.8322
  1.9355   2.0486   2.1314   2.1314   2.3960   2.4257   2.4257   2.5616
  2.5616   2.5948   2.6380   2.6380   2.6767   2.8060   2.8060   2.9626
  2.9626   3.0140   3.2135   3.3444   3.4045   3.8172   3.8172   4.0916
 23.5327  23.9454  24.9698
 --------------------------------------------------------------
 
          Ground-State Mulliken Net Atomic Charges

     Atom                 Charge (a.u.)
  ----------------------------------------
      1 C                     1.750780
      2 C                    -1.984460
      3 H                     0.136929
      4 C                    -0.449379
      5 H                     0.182043
      6 H                     0.182043
      7 H                     0.182044
  ----------------------------------------
  Sum of atomic charges =     0.000000

 -----------------------------------------------------------------
                    Cartesian Multipole Moments
 -----------------------------------------------------------------
    Charge (ESU x 10^10)
                 0.0000
    Dipole Moment (Debye)
         X      -0.0000      Y      -0.0000      Z       0.9054
       Tot       0.9054
    Quadrupole Moments (Debye-Ang)
        XX     -19.9015     XY       0.0000     YY     -19.9015
        XZ       0.0000     YZ       0.0000     ZZ     -13.9034
    Octopole Moments (Debye-Ang^2)
       XXX       0.5223    XXY       0.5062    XYY      -0.5222
       YYY      -0.5062    XXZ       3.4577    XYZ       0.0000
       YYZ       3.4577    XZZ      -0.0000    YZZ       0.0000
       ZZZ      -8.6979
    Hexadecapole Moments (Debye-Ang^3)
      XXXX     -30.4033   XXXY      -0.0000   XXYY     -10.1344
      XYYY      -0.0000   YYYY     -30.4033   XXXZ       0.8680
      XXYZ       0.8414   XYYZ      -0.8680   YYYZ      -0.8414
      XXZZ     -38.7942   XYZZ       0.0000   YYZZ     -38.7942
      XZZZ       0.0001   YZZZ       0.0001   ZZZZ    -159.8364
 -----------------------------------------------------------------
 Total job time:  4.71s(wall), 92.57s(cpu) 
 Fri Oct  6 16:47:42 2023

        *************************************************************
        *                                                           *
        *  Thank you very much for using Q-Chem.  Have a nice day.  *
        *                                                           *
        *************************************************************


