                  Welcome to Q-Chem
     A Quantum Leap Into The Future Of Chemistry


 Q-Chem 5.4, Q-Chem, Inc., Pleasanton, CA (2021)

 License issued to: Haverford College (site)

 E. Epifanovsky,  A. T. B. Gilbert,  Xintian Feng,  Joonho Lee,  Yuezhi Mao,  
 N. Mardirossian,  P. Pokhilko,  A. White,  M. Wormit,  M. P. Coons,  
 A. L. Dempwolff,  Zhengting Gan,  D. Hait,  P. R. Horn,  L. D. Jacobson,  
 I. Kaliman,  J. Kussmann,  A. W. Lange,  Ka Un Lao,  D. S. Levine,  Jie Liu,  
 S. C. McKenzie,  A. F. Morrison,  K. Nanda,  F. Plasser,  D. R. Rehn,  
 M. L. Vidal,  Zhi-Qiang You,  Ying Zhu,  B. Alam,  B. Albrecht,  
 A. Aldossary,  E. Alguire,  J. H. Andersen,  D. Barton,  K. Begam,  A. Behn,  
 Y. A. Bernard,  E. J. Berquist,  H. Burton,  A. Carreras,  K. Carter-Fenk,  
 R. Chakraborty,  A. D. Chien,  K. D. Closser,  V. Cofer-Shabica,  
 S. Dasgupta,  Jia Deng,  M. de Wergifosse,  M. Diedenhofen,  Hainam Do,  
 S. Ehlert,  Po-Tung Fang,  S. Fatehi,  Qingguo Feng,  J. Gayvert,  
 Qinghui Ge,  G. Gidofalvi,  M. Goldey,  J. Gomes,  C. Gonzalez-Espinoza,  
 S. Gulania,  A. Gunina,  M. W. D. Hanson-Heine,  P. H. P. Harbach,  
 A. W. Hauser,  M. F. Herbst,  M. Hernandez Vera,  M. Hodecker,  
 Z. C. Holden,  S. Houck,  Xunkun Huang,  Kerwin Hui,  B. C. Huynh,  
 M. Ivanov,  Hyunjun Ji,  Hanjie Jiang,  B. Kaduk,  S. Kaehler,  
 K. Khistyaev,  Jaehoon Kim,  P. Klunzinger,  Z. Koczor-Benda,  
 Joong Hoon Koh,  D. Kosenkov,  L. Koulias,  T. Kowalczyk,  C. M. Krauter,  
 K. Kue,  A. Kunitsa,  T. Kus,  A. Landau,  K. V. Lawler,  D. Lefrancois,  
 S. Lehtola,  Rain Li,  Yi-Pei Li,  Jiashu Liang,  M. Liebenthal,  
 Hung-Hsuan Lin,  You-Sheng Lin,  Fenglai Liu,  Kuan-Yu Liu,  
 M. Loipersberger,  A. Luenser,  A. Manjanath,  P. Manohar,  E. Mansoor,  
 S. F. Manzer,  Shan-Ping Mao,  A. V. Marenich,  T. Markovich,  S. Mason,  
 S. A. Maurer,  P. F. McLaughlin,  M. F. S. J. Menger,  J.-M. Mewes,  
 S. A. Mewes,  P. Morgante,  J. W. Mullinax,  T. S. Nguyen-Beck,  
 K. J. Oosterbaan,  G. Paran,  Alexander C. Paul,  Suranjan K. Paul,  
 F. Pavosevic,  Zheng Pei,  S. Prager,  E. I. Proynov,  E. Ramos,  B. Rana,  
 A. E. Rask,  A. Rettig,  R. M. Richard,  F. Rob,  E. Rossomme,  T. Scheele,  
 M. Scheurer,  M. Schneider,  N. Sergueev,  S. M. Sharada,  W. Skomorowski,  
 D. W. Small,  C. J. Stein,  Yu-Chuan Su,  E. J. Sundstrom,  Zhen Tao,  
 J. Thirman,  T. Tsuchimochi,  N. M. Tubman,  S. P. Veccham,  O. Vydrov,  
 J. Wenzel,  J. Witte,  A. Yamada,  Kun Yao,  S. Yeganeh,  S. R. Yost,  
 A. Zech,  Igor Ying Zhang,  Xing Zhang,  Yu Zhang,  D. Zuev,  
 A. Aspuru-Guzik,  A. T. Bell,  N. A. Besley,  K. B. Bravaya,  B. R. Brooks,  
 D. Casanova,  Jeng-Da Chai,  S. Coriani,  C. J. Cramer,  
 A. E. DePrince, III,  R. A. DiStasio Jr.,  A. Dreuw,  B. D. Dunietz,  
 T. R. Furlani,  W. A. Goddard III,  S. Grimme,  S. Hammes-Schiffer,  
 T. Head-Gordon,  W. J. Hehre,  Chao-Ping Hsu,  T.-C. Jagau,  Yousung Jung,  
 A. Klamt,  Jing Kong,  D. S. Lambrecht,  WanZhen Liang,  N. J. Mayhall,  
 C. W. McCurdy,  J. B. Neaton,  C. Ochsenfeld,  J. A. Parkhill,  R. Peverati,  
 V. A. Rassolov,  Yihan Shao,  L. V. Slipchenko,  T. Stauch,  R. P. Steele,  
 J. E. Subotnik,  A. J. W. Thom,  A. Tkatchenko,  D. G. Truhlar,  
 T. Van Voorhis,  T. A. Wesolowski,  K. B. Whaley,  H. L. Woodcock III,  
 P. M. Zimmerman,  S. Faraji,  P. M. W. Gill,  M. Head-Gordon,  
 J. M. Herbert,  A. I. Krylov

 Contributors to earlier versions of Q-Chem not listed above: 
 R. D. Adamson,  B. Austin,  R. Baer,  J. Baker,  G. J. O. Beran,  
 K. Brandhorst,  S. T. Brown,  E. F. C. Byrd,  A. K. Chakraborty,  
 G. K. L. Chan,  Chun-Min Chang,  Yunqing Chen,  C.-L. Cheng,  
 Siu Hung Chien,  D. M. Chipman,  D. L. Crittenden,  H. Dachsel,  
 R. J. Doerksen,  A. D. Dutoi,  R. G. Edgar,  J. Fosso-Tande,  
 L. Fusti-Molnar,  D. Ghosh,  A. Ghysels,  A. Golubeva-Zadorozhnaya,  
 J. Gonthier,  M. S. Gordon,  S. R. Gwaltney,  G. Hawkins,  J. E. Herr,  
 A. Heyden,  S. Hirata,  E. G. Hohenstein,  G. Kedziora,  F. J. Keil,  
 C. Kelley,  Jihan Kim,  R. A. King,  R. Z. Khaliullin,  P. P. Korambath,  
 W. Kurlancheek,  A. Laurent,  A. M. Lee,  M. S. Lee,  S. V. Levchenko,  
 Ching Yeh Lin,  D. Liotard,  E. Livshits,  R. C. Lochan,  I. Lotan,  
 L. A. Martinez-Martinez,  P. E. Maslen,  N. Nair,  D. P. O'Neill,  
 D. Neuhauser,  E. Neuscamman,  C. M. Oana,  R. Olivares-Amaya,  R. Olson,  
 T. M. Perrine,  B. Peters,  P. A. Pieniazek,  A. Prociuk,  Y. M. Rhee,  
 J. Ritchie,  M. A. Rohrdanz,  E. Rosta,  N. J. Russ,  H. F. Schaefer III,  
 M. W. Schmidt,  N. E. Schultz,  S. Sharma,  N. Shenvi,  C. D. Sherrill,  
 A. C. Simmonett,  A. Sodt,  T. Stein,  D. Stuck,  K. S. Thanthiriwatte,  
 V. Vanovschi,  L. Vogt,  Tao Wang,  A. Warshel,  M. A. Watson,  
 C. F. Williams,  Q. Wu,  X. Xu,  Jun Yang,  W. Zhang,  Yan Zhao

 Please cite Q-Chem as follows:
 Y. Shao et al., Mol. Phys. 113, 184-215 (2015)
 DOI: 10.1080/00268976.2014.952696

 Q-Chem 5.4.0 for Intel X86 EM64T Linux

 Parts of Q-Chem use Armadillo 9.800.1 (Horizon Scraper).
 http://arma.sourceforge.net/

 Q-Chem begins on Fri Oct  6 16:47:00 2023  

 Host: 
0

     Scratch files written to /local_scratch/qchem/pyqchem_2035299//
 May1621 |scratch|qcdevops|jenkins|workspace|build_RNUM 7396   
 Processing $rem in /pikachu/sw/qchem/5.4.0/config/preferences:
 Processing $rem in /homes/kstreu/.qchemrc:

 Checking the input file for inconsistencies... 	...done.

--------------------------------------------------------------
User input:
--------------------------------------------------------------
$molecule
0 1
C	        0.0000033736         0.0000007081        -0.3858975709
C	       -0.0000016825         0.0000001171        -1.3052068654
H	       -0.0000035785        -0.0000010433        -2.2755234933
C	       -0.0000033960         0.0000000000         1.2425847736
H	        0.9916338986         0.2601992926         1.6323041616
H	       -0.2704868842        -0.9888840827         1.6322971256
H	       -0.7211607094         0.7286858010         1.6322999265
$end
$rem
jobtype sp
method tpss
basis 6-311++g**
thresh 14
scf_convergence 9
scf_algorithm rca_diis
max_scf_cycles 200
gui 2
set_iter 30
RPA False
mem_total 100000
mem_static 2000
n_frozen_virtual 0
mom_start False
skip_scfman False
scf_guess_mix False
symmetry False
sym_ignore True
sym_tol 5
dft_d d3
xc_smart_grid True
xc_grid 000099000590
$end

--------------------------------------------------------------
 Adding empirical dispersion correction 
 ----------------------------------------------------------------
 Doing -D3(OP) with
 s6  =   1.00000
 s8  =   0.51581
 a1  =   0.57500
 a2  =   3.00000
 pow =   14.00000
 -D3 energy without 3body term =     -0.0011236125 hartrees
 ----------------------------------------------------------------
             Standard Nuclear Orientation (Angstroms)
    I     Atom           X                Y                Z
 ----------------------------------------------------------------
    1      C       0.0000033736     0.0000007081    -0.3858975709
    2      C      -0.0000016825     0.0000001171    -1.3052068654
    3      H      -0.0000035785    -0.0000010433    -2.2755234933
    4      C      -0.0000033960     0.0000000000     1.2425847736
    5      H       0.9916338986     0.2601992926     1.6323041616
    6      H      -0.2704868842    -0.9888840827     1.6322971256
    7      H      -0.7211607094     0.7286858010     1.6322999265
 ----------------------------------------------------------------
 Nuclear Repulsion Energy =          62.99279236 hartrees
 There are       11 alpha and       11 beta electrons
 Requested basis set is 6-311++G(d,p)
 There are 38 shells and 94 basis functions

 Total QAlloc Memory Limit 100000 MB
 Mega-Array Size      1956 MB
 MEM_STATIC part      2000 MB

                       Distance Matrix (Angstroms)
             C (  1)   C (  2)   H (  3)   C (  4)   H (  5)   H (  6)
   C (  2)  0.919309
   H (  3)  1.889626  0.970317
   C (  4)  1.628482  2.547792  3.518108
   H (  5)  2.263664  3.111272  4.040070  1.096781
   H (  6)  2.263663  3.111267  4.040063  1.096781  1.775713
   H (  7)  2.263665  3.111270  4.040066  1.096781  1.775710  1.775712

 
 A cutoff of  1.0D-14 yielded    737 shell pairs
 There are      4575 function pairs (      4878 Cartesian)
 Smallest overlap matrix eigenvalue = 4.56E-07
 Linear dependence detected in AO basis
 Tighter screening thresholds may be required for diffuse basis sets
 Use S2THRESH > 14 and THRESH = 14 in case of SCF convergence issues
 Number of orthogonalized atomic orbitals = 93
 Maximum deviation from orthogonality = 5.391E-12

 Scale SEOQF with 1.000000e-01/1.000000e-01/1.000000e-01

 Standard Electronic Orientation quadrupole field applied
 Nucleus-field energy     =    -0.0000000034 hartrees
 Guess from superposition of atomic densities
 Warning:  Energy on first SCF cycle will be non-variational
 SAD guess density has 22.000000 electrons
 A restricted Kohn-Sham SCF calculation will be
 performed using Relaxed Constraint Minimization + Pulay DIIS
 Exchange:  TPSS      Correlation:  TPSS
 Using Euler-Maclaurin-Lebedev (99,590) quadrature formula
 Dispersion:   Grimme D3
 SCF converges when DIIS error is below 1.0E-09
 using 20 threads for integral computing
 -------------------------------------------------------
 OpenMP Integral computing Module                
 Release: version 1.0, May 2013, Q-Chem Inc. Pittsburgh 
 -------------------------------------------------------
 ---------------------------------------
  Cycle       Energy         DIIS Error
 ---------------------------------------
    1    -117.1180965552      7.68E-02
    2    -116.1456812853      1.60E-02
    3    -116.2427687287      4.29E-03
    4    -116.3952769853      2.97E-03
    5    -116.3992092776      4.04E-04 Done RCA. Switching to DIIS
    6    -116.4032454357      3.72E-04
    7    -116.4030886854      5.34E-04
    8    -116.4033757529      8.32E-05
    9    -116.4033821610      1.21E-05
   10    -116.4033823326      1.68E-06
   11    -116.4033823347      1.08E-06
   12    -116.4033823360      7.87E-08
   13    -116.4033823360      2.46E-09
   14    -116.4033823360      6.21E-10 Convergence criterion met
 ---------------------------------------
 SCF time:  CPU 83.43 s  wall 4.23 s
 SCF   energy in the final basis set = -116.40338234
 Total energy in the final basis set = -116.40338234
 
 --------------------------------------------------------------
 
                    Orbital Energies (a.u.)
 --------------------------------------------------------------
 
 Alpha MOs
 -- Occupied --
-10.0097  -9.9282  -9.8905  -0.7230  -0.6489  -0.4817  -0.3806  -0.3806
 -0.3783  -0.2951  -0.2951
 -- Virtual --
 -0.0088   0.0183   0.0328   0.0328   0.0580   0.0703   0.0703   0.0886
  0.0886   0.1037   0.1139   0.1139   0.1239   0.1356   0.1652   0.1652
  0.1813   0.2044   0.2085   0.2085   0.2769   0.3016   0.4254   0.4254
  0.4530   0.5059   0.5310   0.5310   0.6251   0.6251   0.6731   0.7018
  0.7018   0.7083   0.7599   0.8405   0.9539   1.0213   1.0213   1.1166
  1.1166   1.1349   1.3515   1.3515   1.4341   1.4381   1.5304   1.5304
  1.6249   1.6444   1.6444   1.7018   1.7018   1.9415   1.9415   2.0575
  2.0735   2.2470   2.2470   2.4333   2.4846   2.4846   2.5734   2.5734
  2.6077   2.7361   2.7361   2.7862   2.8347   2.8347   3.0239   3.0898
  3.0898   3.1091   3.4777   3.6303   3.7982   3.7982   4.5509  23.8940
 24.5062  25.6898
 --------------------------------------------------------------
 
          Ground-State Mulliken Net Atomic Charges

     Atom                 Charge (a.u.)
  ----------------------------------------
      1 C                     0.275582
      2 C                     0.057348
      3 H                     0.049086
      4 C                    -0.896740
      5 H                     0.171574
      6 H                     0.171574
      7 H                     0.171575
  ----------------------------------------
  Sum of atomic charges =     0.000000

 -----------------------------------------------------------------
                    Cartesian Multipole Moments
 -----------------------------------------------------------------
    Charge (ESU x 10^10)
                -0.0000
    Dipole Moment (Debye)
         X      -0.0000      Y       0.0000      Z       0.5442
       Tot       0.5442
    Quadrupole Moments (Debye-Ang)
        XX     -18.4498     XY       0.0000     YY     -18.4497
        XZ      -0.0000     YZ       0.0000     ZZ     -14.5266
    Octopole Moments (Debye-Ang^2)
       XXX       0.4669    XXY       0.4526    XYY      -0.4669
       YYY      -0.4526    XXZ       1.1692    XYZ       0.0000
       YYZ       1.1692    XZZ      -0.0000    YZZ       0.0000
       ZZZ      -7.1549
    Hexadecapole Moments (Debye-Ang^3)
      XXXX     -26.4010   XXXY      -0.0000   XXYY      -8.8003
      XYYY       0.0000   YYYY     -26.4009   XXXZ       0.8389
      XXYZ       0.8131   XYYZ      -0.8388   YYYZ      -0.8131
      XXZZ     -33.7624   XYZZ       0.0000   YYZZ     -33.7624
      XZZZ       0.0001   YZZZ       0.0001   ZZZZ    -157.7848
 -----------------------------------------------------------------
 Total job time:  4.65s(wall), 91.00s(cpu) 
 Fri Oct  6 16:47:05 2023

        *************************************************************
        *                                                           *
        *  Thank you very much for using Q-Chem.  Have a nice day.  *
        *                                                           *
        *************************************************************


